# vtk DataFile Version 2.0
step 0 time 0.000000e+00 normalized time 0.000000e+00, generated by ipykernel_launcher.py
ASCII
DATASET UNSTRUCTURED_GRID

POINTS 1300 float
0.000000e+00 5.015000e-01 0.000000e+00
0.000000e+00 9.365000e-01 0.000000e+00
1.000000e+00 5.015000e-01 0.000000e+00
1.000000e+00 9.365000e-01 0.000000e+00
7.596000e-01 7.190000e-01 0.000000e+00
6.057000e-01 0.000000e+00 0.000000e+00
9.000000e-01 0.000000e+00 0.000000e+00
7.528000e-01 3.802000e-01 0.000000e+00
6.057000e-01 1.000000e+00 0.000000e+00
9.000000e-01 1.000000e+00 0.000000e+00
4.927000e-01 2.440000e-01 0.000000e+00
5.560000e-02 2.440000e-01 0.000000e+00
7.058000e-01 7.514000e-01 0.000000e+00
2.686000e-01 7.514000e-01 0.000000e+00
0.000000e+00 0.000000e+00 0.000000e+00
1.000000e+00 0.000000e+00 0.000000e+00
1.000000e+00 1.000000e+00 0.000000e+00
0.000000e+00 1.000000e+00 0.000000e+00
0.000000e+00 5.450000e-01 0.000000e+00
0.000000e+00 5.885000e-01 0.000000e+00
0.000000e+00 6.320000e-01 0.000000e+00
0.000000e+00 6.755000e-01 0.000000e+00
0.000000e+00 7.190000e-01 0.000000e+00
0.000000e+00 7.625000e-01 0.000000e+00
0.000000e+00 8.060000e-01 0.000000e+00
0.000000e+00 8.495000e-01 0.000000e+00
0.000000e+00 8.930000e-01 0.000000e+00
4.490000e-02 5.108000e-01 0.000000e+00
8.680000e-02 5.293000e-01 0.000000e+00
1.240000e-01 5.562000e-01 0.000000e+00
1.548000e-01 5.902000e-01 0.000000e+00
1.778000e-01 6.298000e-01 0.000000e+00
1.920000e-01 6.734000e-01 0.000000e+00
1.968000e-01 7.190000e-01 0.000000e+00
1.920000e-01 7.646000e-01 0.000000e+00
1.778000e-01 8.082000e-01 0.000000e+00
1.548000e-01 8.479000e-01 0.000000e+00
1.240000e-01 8.818000e-01 0.000000e+00
8.680000e-02 9.087000e-01 0.000000e+00
4.490000e-02 9.272000e-01 0.000000e+00
1.000000e+00 5.450000e-01 0.000000e+00
1.000000e+00 5.885000e-01 0.000000e+00
1.000000e+00 6.320000e-01 0.000000e+00
1.000000e+00 6.755000e-01 0.000000e+00
1.000000e+00 7.190000e-01 0.000000e+00
1.000000e+00 7.625000e-01 0.000000e+00
1.000000e+00 8.060000e-01 0.000000e+00
1.000000e+00 8.495000e-01 0.000000e+00
1.000000e+00 8.930000e-01 0.000000e+00
9.544000e-01 5.017000e-01 0.000000e+00
9.099000e-01 5.114000e-01 0.000000e+00
8.684000e-01 5.300000e-01 0.000000e+00
8.316000e-01 5.569000e-01 0.000000e+00
8.012000e-01 5.909000e-01 0.000000e+00
7.784000e-01 6.303000e-01 0.000000e+00
7.644000e-01 6.737000e-01 0.000000e+00
7.644000e-01 7.643000e-01 0.000000e+00
7.784000e-01 8.077000e-01 0.000000e+00
8.012000e-01 8.472000e-01 0.000000e+00
8.316000e-01 8.811000e-01 0.000000e+00
8.684000e-01 9.080000e-01 0.000000e+00
9.099000e-01 9.266000e-01 0.000000e+00
9.544000e-01 9.363000e-01 0.000000e+00
6.548000e-01 0.000000e+00 0.000000e+00
7.038000e-01 0.000000e+00 0.000000e+00
7.528000e-01 0.000000e+00 0.000000e+00
8.019000e-01 0.000000e+00 0.000000e+00
8.509000e-01 0.000000e+00 0.000000e+00
5.765000e-01 3.250000e-02 0.000000e+00
5.543000e-01 7.020000e-02 0.000000e+00
5.401000e-01 1.115000e-01 0.000000e+00
5.344000e-01 1.548000e-01 0.000000e+00
5.374000e-01 1.984000e-01 0.000000e+00
5.490000e-01 2.405000e-01 0.000000e+00
5.688000e-01 2.795000e-01 0.000000e+00
5.959000e-01 3.138000e-01 0.000000e+00
6.293000e-01 3.419000e-01 0.000000e+00
6.676000e-01 3.629000e-01 0.000000e+00
7.094000e-01 3.758000e-01 0.000000e+00
7.963000e-01 3.759000e-01 0.000000e+00
8.381000e-01 3.629000e-01 0.000000e+00
8.764000e-01 3.419000e-01 0.000000e+00
9.098000e-01 3.138000e-01 0.000000e+00
9.369000e-01 2.795000e-01 0.000000e+00
9.567000e-01 2.405000e-01 0.000000e+00
9.683000e-01 1.984000e-01 0.000000e+00
9.713000e-01 1.548000e-01 0.000000e+00
9.656000e-01 1.115000e-01 0.000000e+00
9.514000e-01 7.020000e-02 0.000000e+00
9.292000e-01 3.250000e-02 0.000000e+00
6.548000e-01 1.000000e+00 0.000000e+00
7.038000e-01 1.000000e+00 0.000000e+00
7.528000e-01 1.000000e+00 0.000000e+00
8.019000e-01 1.000000e+00 0.000000e+00
8.509000e-01 1.000000e+00 0.000000e+00
6.379000e-01 9.757000e-01 0.000000e+00
6.740000e-01 9.578000e-01 0.000000e+00
7.127000e-01 9.468000e-01 0.000000e+00
7.528000e-01 9.431000e-01 0.000000e+00
7.930000e-01 9.468000e-01 0.000000e+00
8.317000e-01 9.578000e-01 0.000000e+00
8.678000e-01 9.757000e-01 0.000000e+00
4.873000e-01 2.927000e-01 0.000000e+00
4.711000e-01 3.389000e-01 0.000000e+00
4.450000e-01 3.803000e-01 0.000000e+00
4.104000e-01 4.149000e-01 0.000000e+00
3.690000e-01 4.409000e-01 0.000000e+00
3.228000e-01 4.571000e-01 0.000000e+00
2.742000e-01 4.626000e-01 0.000000e+00
2.255000e-01 4.571000e-01 0.000000e+00
1.793000e-01 4.409000e-01 0.000000e+00
1.379000e-01 4.149000e-01 0.000000e+00
1.033000e-01 3.803000e-01 0.000000e+00
7.720000e-02 3.389000e-01 0.000000e+00
6.110000e-02 2.927000e-01 0.000000e+00
6.110000e-02 1.954000e-01 0.000000e+00
7.720000e-02 1.492000e-01 0.000000e+00
1.033000e-01 1.077000e-01 0.000000e+00
1.379000e-01 7.310000e-02 0.000000e+00
1.793000e-01 4.710000e-02 0.000000e+00
2.255000e-01 3.090000e-02 0.000000e+00
2.742000e-01 2.540000e-02 0.000000e+00
3.228000e-01 3.090000e-02 0.000000e+00
3.690000e-01 4.710000e-02 0.000000e+00
4.104000e-01 7.310000e-02 0.000000e+00
4.450000e-01 1.077000e-01 0.000000e+00
4.711000e-01 1.492000e-01 0.000000e+00
4.873000e-01 1.954000e-01 0.000000e+00
7.003000e-01 8.000000e-01 0.000000e+00
6.841000e-01 8.462000e-01 0.000000e+00
6.581000e-01 8.876000e-01 0.000000e+00
6.235000e-01 9.222000e-01 0.000000e+00
5.820000e-01 9.483000e-01 0.000000e+00
5.358000e-01 9.645000e-01 0.000000e+00
4.872000e-01 9.699000e-01 0.000000e+00
4.386000e-01 9.645000e-01 0.000000e+00
3.924000e-01 9.483000e-01 0.000000e+00
3.509000e-01 9.222000e-01 0.000000e+00
3.163000e-01 8.876000e-01 0.000000e+00
2.903000e-01 8.462000e-01 0.000000e+00
2.741000e-01 8.000000e-01 0.000000e+00
2.741000e-01 7.027000e-01 0.000000e+00
2.903000e-01 6.565000e-01 0.000000e+00
3.163000e-01 6.151000e-01 0.000000e+00
3.509000e-01 5.805000e-01 0.000000e+00
3.924000e-01 5.544000e-01 0.000000e+00
4.386000e-01 5.383000e-01 0.000000e+00
4.872000e-01 5.328000e-01 0.000000e+00
5.358000e-01 5.383000e-01 0.000000e+00
5.820000e-01 5.544000e-01 0.000000e+00
6.235000e-01 5.805000e-01 0.000000e+00
6.581000e-01 6.151000e-01 0.000000e+00
6.841000e-01 6.565000e-01 0.000000e+00
7.003000e-01 7.027000e-01 0.000000e+00
4.330000e-02 0.000000e+00 0.000000e+00
8.650000e-02 0.000000e+00 0.000000e+00
1.298000e-01 0.000000e+00 0.000000e+00
1.731000e-01 0.000000e+00 0.000000e+00
2.163000e-01 0.000000e+00 0.000000e+00
2.596000e-01 0.000000e+00 0.000000e+00
3.029000e-01 0.000000e+00 0.000000e+00
3.461000e-01 0.000000e+00 0.000000e+00
3.894000e-01 0.000000e+00 0.000000e+00
4.327000e-01 0.000000e+00 0.000000e+00
4.759000e-01 0.000000e+00 0.000000e+00
5.192000e-01 0.000000e+00 0.000000e+00
5.625000e-01 0.000000e+00 0.000000e+00
9.500000e-01 0.000000e+00 0.000000e+00
1.000000e+00 4.180000e-02 0.000000e+00
1.000000e+00 8.360000e-02 0.000000e+00
1.000000e+00 1.254000e-01 0.000000e+00
1.000000e+00 1.672000e-01 0.000000e+00
1.000000e+00 2.090000e-01 0.000000e+00
1.000000e+00 2.508000e-01 0.000000e+00
1.000000e+00 2.925000e-01 0.000000e+00
1.000000e+00 3.343000e-01 0.000000e+00
1.000000e+00 3.761000e-01 0.000000e+00
1.000000e+00 4.179000e-01 0.000000e+00
1.000000e+00 4.597000e-01 0.000000e+00
1.000000e+00 9.682000e-01 0.000000e+00
9.500000e-01 1.000000e+00 0.000000e+00
5.625000e-01 1.000000e+00 0.000000e+00
5.192000e-01 1.000000e+00 0.000000e+00
4.759000e-01 1.000000e+00 0.000000e+00
4.327000e-01 1.000000e+00 0.000000e+00
3.894000e-01 1.000000e+00 0.000000e+00
3.461000e-01 1.000000e+00 0.000000e+00
3.029000e-01 1.000000e+00 0.000000e+00
2.596000e-01 1.000000e+00 0.000000e+00
2.163000e-01 1.000000e+00 0.000000e+00
1.731000e-01 1.000000e+00 0.000000e+00
1.298000e-01 1.000000e+00 0.000000e+00
8.650000e-02 1.000000e+00 0.000000e+00
4.330000e-02 1.000000e+00 0.000000e+00
0.000000e+00 9.682000e-01 0.000000e+00
0.000000e+00 4.597000e-01 0.000000e+00
0.000000e+00 4.179000e-01 0.000000e+00
0.000000e+00 3.761000e-01 0.000000e+00
0.000000e+00 3.343000e-01 0.000000e+00
0.000000e+00 2.925000e-01 0.000000e+00
0.000000e+00 2.508000e-01 0.000000e+00
0.000000e+00 2.090000e-01 0.000000e+00
0.000000e+00 1.672000e-01 0.000000e+00
0.000000e+00 1.254000e-01 0.000000e+00
0.000000e+00 8.360000e-02 0.000000e+00
0.000000e+00 4.180000e-02 0.000000e+00
1.030000e-01 6.852000e-01 0.000000e+00
7.510000e-02 7.803000e-01 0.000000e+00
8.790000e-02 6.189000e-01 0.000000e+00
5.900000e-02 8.458000e-01 0.000000e+00
1.132000e-01 7.425000e-01 0.000000e+00
7.010000e-02 7.403000e-01 0.000000e+00
1.166000e-01 6.421000e-01 0.000000e+00
5.230000e-02 5.739000e-01 0.000000e+00
4.100000e-02 6.875000e-01 0.000000e+00
1.547000e-01 7.024000e-01 0.000000e+00
9.740000e-02 8.422000e-01 0.000000e+00
3.580000e-02 7.720000e-01 0.000000e+00
1.200000e-01 7.987000e-01 0.000000e+00
3.810000e-02 8.849000e-01 0.000000e+00
5.300000e-02 6.295000e-01 0.000000e+00
1.312000e-01 6.138000e-01 0.000000e+00
3.440000e-02 8.113000e-01 0.000000e+00
9.360000e-02 5.852000e-01 0.000000e+00
7.580000e-02 8.694000e-01 0.000000e+00
1.525000e-01 6.613000e-01 0.000000e+00
1.572000e-01 7.462000e-01 0.000000e+00
3.120000e-02 5.421000e-01 0.000000e+00
6.940000e-02 8.178000e-01 0.000000e+00
1.539000e-01 6.348000e-01 0.000000e+00
3.650000e-02 7.302000e-01 0.000000e+00
3.450000e-02 8.498000e-01 0.000000e+00
1.525000e-01 7.844000e-01 0.000000e+00
7.010000e-02 7.032000e-01 0.000000e+00
9.056000e-01 7.560000e-01 0.000000e+00
8.778000e-01 6.435000e-01 0.000000e+00
9.088000e-01 8.288000e-01 0.000000e+00
8.427000e-01 6.828000e-01 0.000000e+00
9.362000e-01 6.982000e-01 0.000000e+00
9.364000e-01 5.838000e-01 0.000000e+00
8.555000e-01 8.029000e-01 0.000000e+00
8.075000e-01 7.256000e-01 0.000000e+00
9.219000e-01 8.639000e-01 0.000000e+00
8.431000e-01 6.440000e-01 0.000000e+00
8.871000e-01 5.892000e-01 0.000000e+00
9.631000e-01 6.659000e-01 0.000000e+00
8.915000e-01 6.952000e-01 0.000000e+00
8.762000e-01 8.556000e-01 0.000000e+00
8.952000e-01 7.830000e-01 0.000000e+00
9.606000e-01 7.430000e-01 0.000000e+00
8.065000e-01 6.858000e-01 0.000000e+00
9.601000e-01 5.455000e-01 0.000000e+00
[...]
POINT_DATA 1300

SCALARS node_groups int 1
LOOKUP_TABLE default
0
0
0
0
0
0
0
0
0
0
0
0
0
0
0
0
0
0
0
0
0
0
0
0
0
0
0
0
0
0
0
0
0
0
0
0
0
0
0
0
0
0
0
0
0
0
0
0
0
0
0
0
0
0
0
0
0
0
0
0
0
0
0
0
0
0
0
0
0
0
0
0
0
0
0
0
0
0
0
0
0
0
0
0
0
0
0
0
0
0
0
0
0
0
0
0
0
0
0
0
0
0
0
0
0
0
0
0
0
0
0
0
0
0
0
0
0
0
0
0
0
0
0
0
0
0
0
0
0
0
0
0
0
0
0
0
0
0
0
0
0
0
0
0
0
0
0
0
0
0
0
0
0
0
0
0
0
0
0
0
0
0
0
0
0
0
0
0
0
0
0
0
0
0
0
0
0
0
0
0
0
0
0
0
0
0
0
0
0
0
0
0
0
0
0
0
0
0
0
0
0
0
0
0
0
0
0
0
0
0
0
0
0
0
0
0
0
0
0
0
0
0
0
0
0
0
0
0
0
0
0
0
0
0
0
0
0
0
0
0
0
0
0
0
0
0
0
0
0
0
0
0
0
0
0
0
0
0
0
0
0
0
0
0
0
0
0
0
0
0
0
0
0
0
0
0
0
0
0
0
0
0
0
0
0
0
0
0
0
0
0
0
0
0
0
0
0
0
0
0
0
0
0
0
0
0
0
0
0
0
0
0
0
0
0
0
0
0
0
0
0
0
0
0
0
0
0
0
0
0
0
0
0
0
0
0
0
0
0
0
0
0
0
0
0
0
0
0
0
0
0
0
0
0
0
0
0
0
0
0
0
0
0
0
0
0
0
0
0
0
0
0
0
0
0
0
0
0
0
0
0
0
0
0
0
0
0
0
0
0
0
0
0
0
0
0
0
0
0
0
0
0
0
0
0
0
0
0
0
0
0
0
0
0
0
0
0
0
0
0
0
0
0
0
0
0
0
0
0
0
0
0
0
0
0
0
0
0
0
0
0
0
0
0
0
0
0
0
0
0
0
0
0
0
0
0
0
0
0
0
0
0
0
0
0
0
0
0
0
0
0
0
0
0
0
0
0
0
0
0
0
0
0
0
0
0
0
0
0
0
0
0
0
0
0
0
0
0
0
0
0
0
0
0
0
0
0
0
0
0
0
0
0
0
0
0
0
0
0
0
0
0
0
0
0
0
0
0
0
0
0
0
0
0
0
0
0
0
0
0
0
0
0
0
0
0
0
0
0
0
0
0
0
0
0
0
0
0
0
0
0
0
0
0
0
0
0
0
0
0
0
0
0
0
0
0
0
0
0
0
0
0
0
0
0
0
0
0
0
0
0
0
0
0
0
0
0
0
0
0
0
0
0
0
0
0
0
0
0
0
0
0
0
0
0
0
0
0
0
0
0
0
0
0
0
0
0
0
0
0
0
0
0
0
0
0
0
0
0
0
0
0
0
0
0
0
0
0
0
0
0
0
0
0
0
0
0
0
0
0
0
0
0
0
0
0
0
0
0
0
0
0
0
0
0
0
0
0
0
0
0
0
0
0
0
0
0
0
0
0
0
0
0
0
0
0
0
0
0
0
0
0
0
0
0
0
0
0
0
0
0
0
0
0
0
0
0
0
0
0
0
0
0
0
0
0
0
0
0
0
0
0
0
0
0
0
0
0
0
0
0
0
0
0
0
0
0
0
0
0
0
0
0
0
0
0
0
0
0
0
0
0
0
0
0
0
0
0
0
0
0
0
0
0
0
0
0
0
0
0
0
0
0
0
0
0
0
0
0
0
0
0
0
0
0
0
0
0
0
0
0
0
0
0
0
0
0
0
0
0
0
0
0
0
0
0
0
0
0
0
0
0
0
0
0
0
0
0
0
0
0
0
0
0
0
0
0
0
0
0
0
0
0
0
0
0
0
0
0
0
0
0
0
0
0
0
0
0
0
0
0
0
0
0
0
0
0
0
0
0
0
0
0
0
0
0
0
0
0
0
0
0
0
0
0
0
0
0
0
0
0
0
0
0
0
0
0
0
0
0
0
0
0
0
0
0
0
0
0
0
0
0
0
0
0
0
0
0
0
0
0
0
0
0
0
0
0
0
0
0
0
0
0
0
0
0
0
0
0
0
0
0
0
0
0
0
0
0
0
0
0
0
0
0
0
0
0
0
0
0
0
0
0
0
0
0
0
0
0
0
0
0
0
0
0
0
0
0
0
0
0
0
0
0
0
0
0
0
0
0
0
0
0
0
0
0
0
0
0
0
0
0
0
0
0
0
0
0
0
0
0
0
0
0
0
0
0
0
0
0
0
0
0
0
0
0
0
0
0
0
0
0
0
0
0
0
0
0
0
0
0
0
0
0
0
0
0
0
0
0
0
0
0
0
0
0
0
0
0
0
0
0
0
0
0
0
0
0
0
0
0
0
0
0
0
0
0
0
0
0
0
0
0
0
0
0
0
0
0
0
0
0
0
0
0
0
0
0
0
0
0
0
0
0
0
0
0
0
0
0
0
0
0
0
0
0
0
0
0
0
0
0
0
0
0
0
0
0
0
0
0
0
0
0
0
0
0
0
0
0
0
0
0
0
0
0
0
0
0
0
0
0
0
0
0
0
0
0
0
0
0
0
0
0
0
0
0
0
0
0
0
0
0
0
0
0
0
0
0
0
0
0
0
0
0
0
0
0
0
0
0
0
0
0
0
0
0
0
0
0
0
0
0
0
0
0
0
0
0
0
0
0
0
0
0
0
0
0
0
0
0
0
0
0
0
0
0
0
0
0
0
0
0
0
0
0
0
0
0
0
0
0
0
0
0
0
0
0
0
0
0
0
0
0
0
0
0
0
0
0
0
0
0
0
0
0
0
0
0
0
0
0
0
0
0
0
0
0
0
0
0
0
0
0
0
0
0
0
0
0
0
0
0
0
0
0
0
0
0
0

VECTORS u_00 float
7.394365e-02 -4.107703e-02 -1.248252e-14
2.010936e-02 -4.887879e-02 -1.236717e-14
7.394365e-02 -4.107703e-02 -1.248252e-14
2.010936e-02 -4.887879e-02 -1.236717e-14
2.688456e-01 -7.251560e-02 -1.247551e-14
1.859024e-01 -6.207417e-02 -1.179535e-14
-9.591078e-02 -6.092351e-02 -1.177829e-14
4.546331e-02 -6.917753e-02 -1.178468e-14
1.859024e-01 -6.207417e-02 -1.179535e-14
-9.591078e-02 -6.092351e-02 -1.177829e-14
-8.761237e-02 -6.947639e-02 -1.179296e-14
3.182608e-01 -8.649674e-02 -1.180270e-14
-9.026653e-02 -7.619577e-02 -1.214458e-14
3.114600e-01 -4.109631e-02 -1.197485e-14
0.000000e+00 0.000000e+00 0.000000e+00
0.000000e+00 0.000000e+00 0.000000e+00
0.000000e+00 0.000000e+00 0.000000e+00
0.000000e+00 0.000000e+00 0.000000e+00
6.878453e-02 -4.124261e-02 -1.248218e-14
6.363876e-02 -4.161476e-02 -1.248532e-14
5.845393e-02 -4.225719e-02 -1.249035e-14
5.327138e-02 -4.317103e-02 -1.248664e-14
4.800788e-02 -4.434094e-02 -1.247876e-14
4.264721e-02 -4.557412e-02 -1.247713e-14
3.716937e-02 -4.670074e-02 -1.246345e-14
3.159214e-02 -4.769857e-02 -1.245342e-14
2.593667e-02 -4.840457e-02 -1.242160e-14
2.966558e-02 -3.617083e-02 -1.248132e-14
-1.269503e-02 -3.154962e-02 -1.247771e-14
-5.129643e-02 -2.757450e-02 -1.248960e-14
-8.396519e-02 -2.451194e-02 -1.250123e-14
-1.089774e-01 -2.247171e-02 -1.247672e-14
-1.250420e-01 -2.118555e-02 -1.247187e-14
-1.334562e-01 -2.175316e-02 -1.244242e-14
-1.344059e-01 -2.338834e-02 -1.245298e-14
-1.282344e-01 -2.611285e-02 -1.244666e-14
-1.133343e-01 -2.962897e-02 -1.242910e-14
-8.969465e-02 -3.388816e-02 -1.242317e-14
-5.835308e-02 -3.837460e-02 -1.239317e-14
-2.124663e-02 -4.347977e-02 -1.238754e-14
6.878453e-02 -4.124261e-02 -1.248218e-14
6.363876e-02 -4.161476e-02 -1.248532e-14
5.845393e-02 -4.225719e-02 -1.249035e-14
5.327138e-02 -4.317103e-02 -1.248664e-14
4.800788e-02 -4.434094e-02 -1.247876e-14
4.264721e-02 -4.557412e-02 -1.247713e-14
3.716937e-02 -4.670074e-02 -1.246345e-14
3.159214e-02 -4.769857e-02 -1.245342e-14
2.593667e-02 -4.840457e-02 -1.242160e-14
1.177538e-01 -4.615845e-02 -1.245139e-14
1.593525e-01 -5.100647e-02 -1.241706e-14
1.967713e-01 -5.583690e-02 -1.240990e-14
2.283124e-01 -6.056262e-02 -1.241105e-14
2.521120e-01 -6.488014e-02 -1.244714e-14
2.669740e-01 -6.844407e-02 -1.240297e-14
2.719134e-01 -7.100602e-02 -1.242367e-14
2.593764e-01 -7.305079e-02 -1.247601e-14
2.432378e-01 -7.238617e-02 -1.249111e-14
2.186964e-01 -7.052960e-02 -1.251321e-14
1.867804e-01 -6.798093e-02 -1.252105e-14
1.487926e-01 -6.420986e-02 -1.246149e-14
1.069229e-01 -5.957030e-02 -1.247559e-14
6.343135e-02 -5.447654e-02 -1.240007e-14
1.386923e-01 -6.212302e-02 -1.182322e-14
9.175140e-02 -6.226217e-02 -1.183162e-14
4.491843e-02 -6.213129e-02 -1.180710e-14
-2.004566e-03 -6.169960e-02 -1.180452e-14
-4.882009e-02 -6.122345e-02 -1.179585e-14
2.138017e-01 -6.221263e-02 -1.179943e-14
2.337029e-01 -6.258926e-02 -1.177162e-14
2.448589e-01 -6.317726e-02 -1.180063e-14
2.470511e-01 -6.372591e-02 -1.178787e-14
2.422363e-01 -6.440019e-02 -1.183413e-14
2.323306e-01 -6.520275e-02 -1.180271e-14
2.160671e-01 -6.628579e-02 -1.181201e-14
1.926069e-01 -6.734889e-02 -1.177420e-14
1.622182e-01 -6.809571e-02 -1.174695e-14
1.266085e-01 -6.870976e-02 -1.172873e-14
8.692744e-02 -6.901938e-02 -1.173936e-14
3.858977e-03 -6.915254e-02 -1.177443e-14
-3.606237e-02 -6.892223e-02 -1.178001e-14
-7.210461e-02 -6.835041e-02 -1.179907e-14
-1.032040e-01 -6.759691e-02 -1.181065e-14
-1.276277e-01 -6.664632e-02 -1.179189e-14
-1.451661e-01 -6.558186e-02 -1.180053e-14
-1.557894e-01 -6.446896e-02 -1.179994e-14
-1.597644e-01 -6.349214e-02 -1.183890e-14
-1.558009e-01 -6.241839e-02 -1.182774e-14
-1.440798e-01 -6.171668e-02 -1.175029e-14
-1.238571e-01 -6.119512e-02 -1.173472e-14
1.386923e-01 -6.212302e-02 -1.182322e-14
9.175140e-02 -6.226217e-02 -1.183162e-14
4.491843e-02 -6.213129e-02 -1.180710e-14
-2.004566e-03 -6.169960e-02 -1.180452e-14
-4.882009e-02 -6.122345e-02 -1.179585e-14
1.548561e-01 -6.200151e-02 -1.182099e-14
1.203222e-01 -6.195800e-02 -1.182940e-14
8.357146e-02 -6.210414e-02 -1.182948e-14
4.551793e-02 -6.184973e-02 -1.181158e-14
7.292938e-03 -6.142561e-02 -1.181723e-14
-2.975481e-02 -6.105357e-02 -1.180420e-14
-6.473352e-02 -6.088992e-02 -1.179302e-14
-8.821980e-02 -7.039021e-02 -1.182356e-14
-7.773839e-02 -7.174968e-02 -1.181017e-14
-5.614085e-02 -7.364965e-02 -1.180009e-14
-2.497239e-02 -7.553469e-02 -1.179879e-14
1.364007e-02 -7.729971e-02 -1.179196e-14
5.758935e-02 -7.878629e-02 -1.176985e-14
1.043229e-01 -8.028680e-02 -1.175698e-14
1.515277e-01 -8.187009e-02 -1.177288e-14
1.967296e-01 -8.359753e-02 -1.179104e-14
2.375998e-01 -8.520030e-02 -1.173542e-14
2.719227e-01 -8.642413e-02 -1.175119e-14
2.975974e-01 -8.719586e-02 -1.173791e-14
3.130449e-01 -8.721658e-02 -1.178866e-14
3.143851e-01 -8.539829e-02 -1.182738e-14
3.017775e-01 -8.361278e-02 -1.182172e-14
2.805261e-01 -8.170382e-02 -1.181424e-14
2.502003e-01 -7.955795e-02 -1.177514e-14
2.125964e-01 -7.754650e-02 -1.178494e-14
1.695169e-01 -7.538930e-02 -1.181941e-14
1.234040e-01 -7.323729e-02 -1.187638e-14
7.699839e-02 -7.088258e-02 -1.185719e-14
3.252573e-02 -6.921575e-02 -1.185490e-14
-7.167918e-03 -6.816976e-02 -1.184994e-14
-3.986633e-02 -6.791511e-02 -1.183314e-14
-6.376036e-02 -6.808069e-02 -1.180517e-14
-7.953014e-02 -6.878421e-02 -1.181023e-14
-8.356260e-02 -7.644572e-02 -1.213920e-14
-6.726111e-02 -7.589949e-02 -1.211153e-14
-4.078356e-02 -7.441986e-02 -1.213495e-14
-5.290182e-03 -7.214591e-02 -1.209503e-14
3.655278e-02 -6.938796e-02 -1.209788e-14
8.180930e-02 -6.621419e-02 -1.207100e-14
1.286133e-01 -6.267826e-02 -1.211466e-14
1.746524e-01 -5.914941e-02 -1.210298e-14
2.175024e-01 -5.573007e-02 -1.208173e-14
2.546864e-01 -5.206605e-02 -1.203257e-14
2.838348e-01 -4.846399e-02 -1.202993e-14
3.029721e-01 -4.535729e-02 -1.201522e-14
3.121093e-01 -4.283048e-02 -1.209311e-14
3.026005e-01 -4.034492e-02 -1.198671e-14
2.857713e-01 -4.048475e-02 -1.202282e-14
2.598451e-01 -4.150382e-02 -1.207253e-14
2.254303e-01 -4.336461e-02 -1.208755e-14
1.840984e-01 -4.599692e-02 -1.209815e-14
1.387046e-01 -4.933593e-02 -1.208747e-14
9.160743e-02 -5.310911e-02 -1.210690e-14
4.544711e-02 -5.710610e-02 -1.211591e-14
2.820186e-03 -6.117426e-02 -1.212933e-14
-3.377797e-02 -6.514357e-02 -1.215348e-14
-6.206852e-02 -6.880957e-02 -1.214598e-14
-8.069825e-02 -7.196777e-02 -1.212057e-14
-8.949293e-02 -7.457379e-02 -1.214283e-14
2.965173e-02 7.593668e-04 -8.884047e-15
6.182612e-02 -2.156786e-02 -1.049308e-14
9.647069e-02 -5.589487e-02 -1.129651e-14
1.250361e-01 -8.565887e-02 -1.167752e-14
1.361156e-01 -9.867465e-02 -1.183244e-14
1.313436e-01 -9.652199e-02 -1.189334e-14
1.185981e-01 -8.731546e-02 -1.190134e-14
1.176589e-01 -7.640443e-02 -1.191765e-14
1.309325e-01 -5.726706e-02 -1.196999e-14
1.360165e-01 -4.112218e-02 -1.199604e-14
1.369827e-01 -3.277286e-02 -1.201578e-14
1.361571e-01 -3.531091e-02 -1.199236e-14
1.538340e-01 -5.309721e-02 -1.195464e-14
-4.067386e-02 -3.144167e-02 -1.033982e-14
-1.597806e-02 9.426132e-03 -8.397457e-15
-3.901513e-02 1.536062e-03 -1.054033e-14
-4.348914e-02 -1.090310e-02 -1.143510e-14
-2.299738e-02 -4.765751e-02 -1.173860e-14
2.027964e-02 -8.602619e-02 -1.173761e-14
7.164873e-02 -1.270079e-01 -1.178309e-14
1.115531e-01 -1.449349e-01 -1.185407e-14
1.319458e-01 -1.501214e-01 -1.183256e-14
1.383926e-01 -1.422241e-01 -1.193451e-14
1.327345e-01 -1.218920e-01 -1.210422e-14
1.117812e-01 -9.074948e-02 -1.224103e-14
1.255521e-02 -1.648591e-02 -8.512047e-15
-4.067386e-02 -3.144167e-02 -1.033982e-14
1.538340e-01 -5.309721e-02 -1.195464e-14
1.361571e-01 -3.531091e-02 -1.199236e-14
1.369827e-01 -3.277286e-02 -1.201578e-14
1.360165e-01 -4.112218e-02 -1.199604e-14
1.309325e-01 -5.726706e-02 -1.196999e-14
1.176589e-01 -7.640443e-02 -1.191765e-14
1.185981e-01 -8.731546e-02 -1.190134e-14
1.313436e-01 -9.652199e-02 -1.189334e-14
1.361156e-01 -9.867465e-02 -1.183244e-14
1.250361e-01 -8.565887e-02 -1.167752e-14
9.647069e-02 -5.589487e-02 -1.129651e-14
6.182612e-02 -2.156786e-02 -1.049308e-14
2.965173e-02 7.593668e-04 -8.884047e-15
1.255521e-02 -1.648591e-02 -8.512047e-15
1.117812e-01 -9.074948e-02 -1.224103e-14
1.327345e-01 -1.218920e-01 -1.210422e-14
1.383926e-01 -1.422241e-01 -1.193451e-14
1.319458e-01 -1.501214e-01 -1.183256e-14
1.115531e-01 -1.449349e-01 -1.185407e-14
7.164873e-02 -1.270079e-01 -1.178309e-14
2.027964e-02 -8.602619e-02 -1.173761e-14
-2.299738e-02 -4.765751e-02 -1.173860e-14
-4.348914e-02 -1.090310e-02 -1.143510e-14
-3.901513e-02 1.536062e-03 -1.054033e-14
-1.597806e-02 9.426132e-03 -8.397457e-15
-4.368410e-02 -3.149942e-02 -1.248183e-14
-2.921709e-02 -3.735635e-02 -1.246026e-14
-2.288553e-02 -3.203147e-02 -1.249575e-14
-2.323442e-02 -4.075220e-02 -1.244075e-14
-5.945680e-02 -3.192787e-02 -1.246359e-14
-1.950347e-02 -3.681835e-02 -1.247053e-14
-5.209298e-02 -2.906336e-02 -1.249248e-14
1.555442e-02 -3.553571e-02 -1.249584e-14
1.374512e-02 -3.875226e-02 -1.248561e-14
-9.321887e-02 -2.603350e-02 -1.246894e-14
-5.871778e-02 -3.632569e-02 -1.244269e-14
8.254425e-03 -4.166668e-02 -1.246643e-14
-7.321883e-02 -3.277032e-02 -1.246154e-14
-8.957689e-03 -4.379207e-02 -1.241948e-14
8.875094e-03 -3.611834e-02 -1.249234e-14
-6.340664e-02 -2.710647e-02 -1.249448e-14
4.449991e-03 -4.284496e-02 -1.245406e-14
-2.500181e-02 -3.102500e-02 -1.248547e-14
-4.235863e-02 -3.920097e-02 -1.242488e-14
-8.741401e-02 -2.541779e-02 -1.247629e-14
-1.002987e-01 -2.692868e-02 -1.245207e-14
3.925175e-02 -3.774764e-02 -1.248643e-14
-2.902398e-02 -3.898597e-02 -1.245430e-14
-8.659518e-02 -2.488416e-02 -1.249052e-14
1.281563e-02 -4.042464e-02 -1.247341e-14
-7.962933e-04 -4.365938e-02 -1.243918e-14
-1.012064e-01 -2.855066e-02 -1.245045e-14
-1.514175e-02 -3.582344e-02 -1.247684e-14
1.308630e-01 -5.647412e-02 -1.249562e-14
1.715261e-01 -5.635590e-02 -1.250607e-14
1.195283e-01 -5.809043e-02 -1.248394e-14
1.982657e-01 -6.143416e-02 -1.247329e-14
1.097526e-01 -5.112387e-02 -1.249732e-14
1.245753e-01 -4.868623e-02 -1.248921e-14
1.719085e-01 -6.376903e-02 -1.249448e-14
2.245127e-01 -6.696123e-02 -1.244278e-14
1.031557e-01 -5.728097e-02 -1.247559e-14
2.038408e-01 -6.038336e-02 -1.246124e-14
1.706378e-01 -5.424525e-02 -1.247848e-14
8.884887e-02 -4.719290e-02 -1.250257e-14
1.515521e-01 -5.615668e-02 -1.248298e-14
1.471195e-01 -6.254555e-02 -1.248990e-14
1.372959e-01 -5.852428e-02 -1.249595e-14
8.153929e-02 -4.963103e-02 -1.247106e-14
2.311124e-01 -6.582396e-02 -1.243206e-14
1.068927e-01 -4.569297e-02 -1.245655e-14
9.382087e-02 -4.626719e-02 -1.249121e-14
2.143515e-01 -6.761496e-02 -1.247494e-14
2.350456e-01 -6.459254e-02 -1.244068e-14
1.187101e-01 -5.338355e-02 -1.249146e-14
1.444850e-01 -5.023649e-02 -1.247406e-14
1.767007e-01 -6.080344e-02 -1.245895e-14
1.307098e-01 -5.034147e-02 -1.250343e-14
1.802147e-01 -6.303934e-02 -1.247471e-14
8.547722e-02 -5.290251e-02 -1.246895e-14
8.192587e-02 -4.789065e-02 -1.248018e-14
1.744114e-01 -5.803346e-02 -1.247568e-14
1.297888e-01 -5.204012e-02 -1.250564e-14
2.113982e-01 -5.976082e-02 -1.244808e-14
1.921006e-01 -6.701943e-02 -1.249634e-14
5.692593e-02 -5.236460e-02 -1.244643e-14
1.123453e-01 -5.637982e-02 -1.249391e-14
5.215083e-02 -5.072998e-02 -1.245125e-14
1.450214e-01 -6.096651e-02 -1.249233e-14
9.898928e-02 -4.555351e-02 -1.247446e-14
2.330915e-01 -6.301019e-02 -1.243067e-14
4.425064e-02 -6.557982e-02 -1.176716e-14
-4.900568e-02 -6.279427e-02 -1.180485e-14
1.246591e-01 -6.329295e-02 -1.178254e-14
-3.284742e-02 -6.574676e-02 -1.180079e-14
1.601707e-01 -6.578904e-02 -1.177823e-14
5.211649e-02 -6.770624e-02 -1.176774e-14
3.484432e-02 -6.286130e-02 -1.178702e-14
-7.231554e-02 -6.442376e-02 -1.180144e-14
1.804277e-01 -6.333763e-02 -1.177581e-14
-2.477999e-03 -6.776067e-02 -1.177198e-14
9.384660e-02 -6.262060e-02 -1.180299e-14
-6.278379e-02 -6.200557e-02 -1.180024e-14
1.043771e-01 -6.765862e-02 -1.175684e-14
1.518935e-01 -6.227878e-02 -1.179659e-14
-1.925688e-03 -6.458883e-02 -1.177836e-14
1.023081e-01 -6.450841e-02 -1.177122e-14
1.253119e-02 -6.667243e-02 -1.177132e-14
-9.814268e-02 -6.285358e-02 -1.181964e-14
-2.910175e-03 -6.223560e-02 -1.178978e-14
9.075317e-02 -6.329646e-02 -1.177974e-14
-1.059017e-01 -6.555955e-02 -1.181618e-14
8.187269e-02 -6.663979e-02 -1.177683e-14
1.933063e-01 -6.568259e-02 -1.178808e-14
-5.772598e-02 -6.749712e-02 -1.179414e-14
2.886225e-02 -6.852214e-02 -1.176212e-14
1.586870e-01 -6.705640e-02 -1.176449e-14
-1.195738e-02 -6.346742e-02 -1.179704e-14
8.556769e-02 -6.846745e-02 -1.174826e-14
5.650333e-02 -6.239608e-02 -1.180539e-14
3.942277e-02 -6.359685e-02 -1.177804e-14
-1.065580e-01 -6.181344e-02 -1.178268e-14
-3.998940e-02 -6.458835e-02 -1.180280e-14
-1.155100e-01 -6.380090e-02 -1.181421e-14
1.941440e-01 -6.237165e-02 -1.180344e-14
1.376283e-01 -6.457151e-02 -1.177869e-14
2.037790e-01 -6.436554e-02 -1.179456e-14
2.121250e-01 -6.328921e-02 -1.180063e-14
-3.589363e-02 -6.813214e-02 -1.178768e-14
1.268612e-01 -6.233547e-02 -1.179489e-14
-3.712588e-02 -6.228306e-02 -1.180424e-14
-1.732767e-02 -6.854066e-02 -1.178662e-14
1.166053e-01 -6.678195e-02 -1.176938e-14
2.137251e-02 -6.223825e-02 -1.179557e-14
-7.812627e-02 -6.227739e-02 -1.181253e-14
-9.953852e-02 -6.656166e-02 -1.181539e-14
-6.447305e-02 -6.342711e-02 -1.181055e-14
1.151207e-01 -6.265503e-02 -1.180488e-14
1.962629e-02 -6.736805e-02 -1.176440e-14
-2.068380e-02 -6.690122e-02 -1.178148e-14
1.536429e-01 -6.353328e-02 -1.177450e-14
1.520860e-01 -6.268930e-02 -1.177700e-14
4.985060e-03 -6.566263e-02 -1.178038e-14
1.750608e-01 -6.210273e-02 -1.177820e-14
-2.804459e-02 -6.190020e-02 -1.179879e-14
-7.384894e-02 -6.145941e-02 -1.179943e-14
4.757378e-02 -6.662608e-02 -1.176648e-14
7.045175e-02 -6.282395e-02 -1.179140e-14
1.187469e-01 -6.838296e-02 -1.174154e-14
1.256022e-01 -6.573379e-02 -1.176194e-14
-1.272780e-03 -6.265402e-02 -1.179216e-14
1.271142e-01 -6.365411e-02 -1.177196e-14
3.852264e-02 -6.454691e-02 -1.177801e-14
5.145348e-02 -6.874382e-02 -1.177222e-14
9.321557e-02 -6.240921e-02 -1.181585e-14
-4.226593e-02 -6.383631e-02 -1.179104e-14
1.909588e-01 -6.636511e-02 -1.177939e-14
-6.802941e-02 -6.570586e-02 -1.180227e-14
8.710463e-02 -6.563104e-02 -1.176406e-14
-1.208780e-01 -6.231061e-02 -1.177422e-14
8.137199e-02 -6.732048e-02 -1.176273e-14
2.192610e-01 -6.282994e-02 -1.179402e-14
1.352531e-01 -6.795372e-02 -1.172926e-14
1.696044e-01 -6.455611e-02 -1.178734e-14
5.378680e-02 -6.205358e-02 -1.181370e-14
3.848376e-02 -6.197193e-02 -1.180463e-14
-3.772209e-02 -6.115504e-02 -1.180169e-14
1.278971e-01 -6.207275e-02 -1.182058e-14
1.150135e-01 -7.802583e-02 -1.178964e-14
2.274472e-01 -8.261810e-02 -1.181445e-14
2.088352e-04 -7.397430e-02 -1.179323e-14
7.840266e-02 -7.888735e-02 -1.176744e-14
1.477854e-01 -7.634641e-02 -1.180108e-14
1.835699e-01 -8.239925e-02 -1.175616e-14
4.640959e-02 -7.287280e-02 -1.182500e-14
7.688688e-03 -7.563484e-02 -1.178088e-14
2.187049e-01 -8.066609e-02 -1.182205e-14
2.290933e-01 -8.408888e-02 -1.178398e-14
5.889115e-04 -7.162459e-02 -1.181010e-14
1.423680e-01 -8.144186e-02 -1.177241e-14
8.307549e-02 -7.256097e-02 -1.185238e-14
1.631702e-01 -7.918492e-02 -1.180182e-14
6.496844e-02 -7.697620e-02 -1.178011e-14
1.755624e-01 -8.097531e-02 -1.178632e-14
5.350460e-02 -7.510579e-02 -1.179704e-14
1.131889e-01 -7.947894e-02 -1.176461e-14
1.164207e-01 -7.614539e-02 -1.181371e-14
2.623323e-01 -8.311250e-02 -1.184688e-14
-3.616135e-02 -7.350590e-02 -1.180465e-14
2.560791e-02 -7.730523e-02 -1.179176e-14
2.003334e-01 -7.818628e-02 -1.179543e-14
2.107475e-01 -8.396987e-02 -1.174929e-14
1.370861e-02 -7.007633e-02 -1.183867e-14
2.660370e-01 -8.475022e-02 -1.178469e-14
-3.568862e-02 -7.186179e-02 -1.180427e-14
7.804500e-02 -7.929640e-02 -1.176855e-14
1.443714e-01 -7.508147e-02 -1.182035e-14
1.733530e-01 -8.267043e-02 -1.177881e-14
5.370890e-02 -7.075021e-02 -1.185618e-14
1.241125e-01 -8.035161e-02 -1.175856e-14
1.028177e-01 -7.471874e-02 -1.182698e-14
-4.433766e-02 -7.366307e-02 -1.181225e-14
2.694895e-01 -8.245366e-02 -1.185234e-14
2.044550e-01 -8.259299e-02 -1.178824e-14
2.450400e-02 -7.341678e-02 -1.180798e-14
-1.731617e-02 -7.536939e-02 -1.179884e-14
2.424689e-01 -8.046135e-02 -1.181896e-14
2.481424e-01 -8.527399e-02 -1.176319e-14
-1.739491e-02 -6.966005e-02 -1.182725e-14
1.966241e-01 -8.089753e-02 -1.181771e-14
3.050794e-02 -7.553139e-02 -1.180199e-14
1.050479e-01 -7.290838e-02 -1.184767e-14
1.202895e-01 -8.076973e-02 -1.176556e-14
2.710693e-01 -8.589144e-02 -1.176044e-14
-3.887069e-02 -6.965059e-02 -1.181513e-14
1.806682e-01 -7.881102e-02 -1.180988e-14
4.645591e-02 -7.721279e-02 -1.179054e-14
2.071968e-01 -8.345807e-02 -1.175603e-14
2.121410e-02 -7.159415e-02 -1.182813e-14
2.829219e-01 -8.499006e-02 -1.183410e-14
-5.396988e-02 -7.153354e-02 -1.180691e-14
3.832392e-02 -7.796544e-02 -1.178579e-14
1.868376e-01 -7.695364e-02 -1.180689e-14
1.167548e-01 -8.044229e-02 -1.176428e-14
1.086195e-01 -7.402940e-02 -1.184375e-14
1.548837e-01 -8.091137e-02 -1.178094e-14
7.474964e-02 -7.471434e-02 -1.181821e-14
1.447633e-01 -7.938581e-02 -1.178785e-14
8.524966e-02 -7.851489e-02 -1.176549e-14
1.429485e-01 -7.731358e-02 -1.180708e-14
8.385046e-02 -7.661667e-02 -1.179752e-14
1.340690e-01 -7.954526e-02 -1.178368e-14
1.021298e-01 -7.630211e-02 -1.180288e-14
1.482032e-01 -8.175922e-02 -1.177820e-14
7.873755e-02 -7.149825e-02 -1.186292e-14
1.644405e-01 -8.201675e-02 -1.175795e-14
6.253882e-02 -7.258375e-02 -1.183101e-14
9.894784e-02 -7.826658e-02 -1.177991e-14