# vtk DataFile Version 2.0
step 0 time 0.000000e+00 normalized time 0.000000e+00, generated by ipykernel_launcher.py
ASCII
DATASET UNSTRUCTURED_GRID

POINTS 1300 float
0.000000e+00 5.015000e-01 0.000000e+00
0.000000e+00 9.365000e-01 0.000000e+00
1.000000e+00 5.015000e-01 0.000000e+00
1.000000e+00 9.365000e-01 0.000000e+00
7.596000e-01 7.190000e-01 0.000000e+00
6.057000e-01 0.000000e+00 0.000000e+00
9.000000e-01 0.000000e+00 0.000000e+00
7.528000e-01 3.802000e-01 0.000000e+00
6.057000e-01 1.000000e+00 0.000000e+00
9.000000e-01 1.000000e+00 0.000000e+00
4.927000e-01 2.440000e-01 0.000000e+00
5.560000e-02 2.440000e-01 0.000000e+00
7.058000e-01 7.514000e-01 0.000000e+00
2.686000e-01 7.514000e-01 0.000000e+00
0.000000e+00 0.000000e+00 0.000000e+00
1.000000e+00 0.000000e+00 0.000000e+00
1.000000e+00 1.000000e+00 0.000000e+00
0.000000e+00 1.000000e+00 0.000000e+00
0.000000e+00 5.450000e-01 0.000000e+00
0.000000e+00 5.885000e-01 0.000000e+00
0.000000e+00 6.320000e-01 0.000000e+00
0.000000e+00 6.755000e-01 0.000000e+00
0.000000e+00 7.190000e-01 0.000000e+00
0.000000e+00 7.625000e-01 0.000000e+00
0.000000e+00 8.060000e-01 0.000000e+00
0.000000e+00 8.495000e-01 0.000000e+00
0.000000e+00 8.930000e-01 0.000000e+00
4.490000e-02 5.108000e-01 0.000000e+00
8.680000e-02 5.293000e-01 0.000000e+00
1.240000e-01 5.562000e-01 0.000000e+00
1.548000e-01 5.902000e-01 0.000000e+00
1.778000e-01 6.298000e-01 0.000000e+00
1.920000e-01 6.734000e-01 0.000000e+00
1.968000e-01 7.190000e-01 0.000000e+00
1.920000e-01 7.646000e-01 0.000000e+00
1.778000e-01 8.082000e-01 0.000000e+00
1.548000e-01 8.479000e-01 0.000000e+00
1.240000e-01 8.818000e-01 0.000000e+00
8.680000e-02 9.087000e-01 0.000000e+00
4.490000e-02 9.272000e-01 0.000000e+00
1.000000e+00 5.450000e-01 0.000000e+00
1.000000e+00 5.885000e-01 0.000000e+00
1.000000e+00 6.320000e-01 0.000000e+00
1.000000e+00 6.755000e-01 0.000000e+00
1.000000e+00 7.190000e-01 0.000000e+00
1.000000e+00 7.625000e-01 0.000000e+00
1.000000e+00 8.060000e-01 0.000000e+00
1.000000e+00 8.495000e-01 0.000000e+00
1.000000e+00 8.930000e-01 0.000000e+00
9.544000e-01 5.017000e-01 0.000000e+00
9.099000e-01 5.114000e-01 0.000000e+00
8.684000e-01 5.300000e-01 0.000000e+00
8.316000e-01 5.569000e-01 0.000000e+00
8.012000e-01 5.909000e-01 0.000000e+00
7.784000e-01 6.303000e-01 0.000000e+00
7.644000e-01 6.737000e-01 0.000000e+00
7.644000e-01 7.643000e-01 0.000000e+00
7.784000e-01 8.077000e-01 0.000000e+00
8.012000e-01 8.472000e-01 0.000000e+00
8.316000e-01 8.811000e-01 0.000000e+00
8.684000e-01 9.080000e-01 0.000000e+00
9.099000e-01 9.266000e-01 0.000000e+00
9.544000e-01 9.363000e-01 0.000000e+00
6.548000e-01 0.000000e+00 0.000000e+00
7.038000e-01 0.000000e+00 0.000000e+00
7.528000e-01 0.000000e+00 0.000000e+00
8.019000e-01 0.000000e+00 0.000000e+00
8.509000e-01 0.000000e+00 0.000000e+00
5.765000e-01 3.250000e-02 0.000000e+00
5.543000e-01 7.020000e-02 0.000000e+00
5.401000e-01 1.115000e-01 0.000000e+00
5.344000e-01 1.548000e-01 0.000000e+00
5.374000e-01 1.984000e-01 0.000000e+00
5.490000e-01 2.405000e-01 0.000000e+00
5.688000e-01 2.795000e-01 0.000000e+00
5.959000e-01 3.138000e-01 0.000000e+00
6.293000e-01 3.419000e-01 0.000000e+00
6.676000e-01 3.629000e-01 0.000000e+00
7.094000e-01 3.758000e-01 0.000000e+00
7.963000e-01 3.759000e-01 0.000000e+00
8.381000e-01 3.629000e-01 0.000000e+00
8.764000e-01 3.419000e-01 0.000000e+00
9.098000e-01 3.138000e-01 0.000000e+00
9.369000e-01 2.795000e-01 0.000000e+00
9.567000e-01 2.405000e-01 0.000000e+00
9.683000e-01 1.984000e-01 0.000000e+00
9.713000e-01 1.548000e-01 0.000000e+00
9.656000e-01 1.115000e-01 0.000000e+00
9.514000e-01 7.020000e-02 0.000000e+00
9.292000e-01 3.250000e-02 0.000000e+00
6.548000e-01 1.000000e+00 0.000000e+00
7.038000e-01 1.000000e+00 0.000000e+00
7.528000e-01 1.000000e+00 0.000000e+00
8.019000e-01 1.000000e+00 0.000000e+00
8.509000e-01 1.000000e+00 0.000000e+00
6.379000e-01 9.757000e-01 0.000000e+00
6.740000e-01 9.578000e-01 0.000000e+00
7.127000e-01 9.468000e-01 0.000000e+00
7.528000e-01 9.431000e-01 0.000000e+00
7.930000e-01 9.468000e-01 0.000000e+00
8.317000e-01 9.578000e-01 0.000000e+00
8.678000e-01 9.757000e-01 0.000000e+00
4.873000e-01 2.927000e-01 0.000000e+00
4.711000e-01 3.389000e-01 0.000000e+00
4.450000e-01 3.803000e-01 0.000000e+00
4.104000e-01 4.149000e-01 0.000000e+00
3.690000e-01 4.409000e-01 0.000000e+00
3.228000e-01 4.571000e-01 0.000000e+00
2.742000e-01 4.626000e-01 0.000000e+00
2.255000e-01 4.571000e-01 0.000000e+00
1.793000e-01 4.409000e-01 0.000000e+00
1.379000e-01 4.149000e-01 0.000000e+00
1.033000e-01 3.803000e-01 0.000000e+00
7.720000e-02 3.389000e-01 0.000000e+00
6.110000e-02 2.927000e-01 0.000000e+00
6.110000e-02 1.954000e-01 0.000000e+00
7.720000e-02 1.492000e-01 0.000000e+00
1.033000e-01 1.077000e-01 0.000000e+00
1.379000e-01 7.310000e-02 0.000000e+00
1.793000e-01 4.710000e-02 0.000000e+00
2.255000e-01 3.090000e-02 0.000000e+00
2.742000e-01 2.540000e-02 0.000000e+00
3.228000e-01 3.090000e-02 0.000000e+00
3.690000e-01 4.710000e-02 0.000000e+00
4.104000e-01 7.310000e-02 0.000000e+00
4.450000e-01 1.077000e-01 0.000000e+00
4.711000e-01 1.492000e-01 0.000000e+00
4.873000e-01 1.954000e-01 0.000000e+00
7.003000e-01 8.000000e-01 0.000000e+00
6.841000e-01 8.462000e-01 0.000000e+00
6.581000e-01 8.876000e-01 0.000000e+00
6.235000e-01 9.222000e-01 0.000000e+00
5.820000e-01 9.483000e-01 0.000000e+00
5.358000e-01 9.645000e-01 0.000000e+00
4.872000e-01 9.699000e-01 0.000000e+00
4.386000e-01 9.645000e-01 0.000000e+00
3.924000e-01 9.483000e-01 0.000000e+00
3.509000e-01 9.222000e-01 0.000000e+00
3.163000e-01 8.876000e-01 0.000000e+00
2.903000e-01 8.462000e-01 0.000000e+00
2.741000e-01 8.000000e-01 0.000000e+00
2.741000e-01 7.027000e-01 0.000000e+00
2.903000e-01 6.565000e-01 0.000000e+00
3.163000e-01 6.151000e-01 0.000000e+00
3.509000e-01 5.805000e-01 0.000000e+00
3.924000e-01 5.544000e-01 0.000000e+00
4.386000e-01 5.383000e-01 0.000000e+00
4.872000e-01 5.328000e-01 0.000000e+00
5.358000e-01 5.383000e-01 0.000000e+00
5.820000e-01 5.544000e-01 0.000000e+00
6.235000e-01 5.805000e-01 0.000000e+00
6.581000e-01 6.151000e-01 0.000000e+00
6.841000e-01 6.565000e-01 0.000000e+00
7.003000e-01 7.027000e-01 0.000000e+00
4.330000e-02 0.000000e+00 0.000000e+00
8.650000e-02 0.000000e+00 0.000000e+00
1.298000e-01 0.000000e+00 0.000000e+00
1.731000e-01 0.000000e+00 0.000000e+00
2.163000e-01 0.000000e+00 0.000000e+00
2.596000e-01 0.000000e+00 0.000000e+00
3.029000e-01 0.000000e+00 0.000000e+00
3.461000e-01 0.000000e+00 0.000000e+00
3.894000e-01 0.000000e+00 0.000000e+00
4.327000e-01 0.000000e+00 0.000000e+00
4.759000e-01 0.000000e+00 0.000000e+00
5.192000e-01 0.000000e+00 0.000000e+00
5.625000e-01 0.000000e+00 0.000000e+00
9.500000e-01 0.000000e+00 0.000000e+00
1.000000e+00 4.180000e-02 0.000000e+00
1.000000e+00 8.360000e-02 0.000000e+00
1.000000e+00 1.254000e-01 0.000000e+00
1.000000e+00 1.672000e-01 0.000000e+00
1.000000e+00 2.090000e-01 0.000000e+00
1.000000e+00 2.508000e-01 0.000000e+00
1.000000e+00 2.925000e-01 0.000000e+00
1.000000e+00 3.343000e-01 0.000000e+00
1.000000e+00 3.761000e-01 0.000000e+00
1.000000e+00 4.179000e-01 0.000000e+00
1.000000e+00 4.597000e-01 0.000000e+00
1.000000e+00 9.682000e-01 0.000000e+00
9.500000e-01 1.000000e+00 0.000000e+00
5.625000e-01 1.000000e+00 0.000000e+00
5.192000e-01 1.000000e+00 0.000000e+00
4.759000e-01 1.000000e+00 0.000000e+00
4.327000e-01 1.000000e+00 0.000000e+00
3.894000e-01 1.000000e+00 0.000000e+00
3.461000e-01 1.000000e+00 0.000000e+00
3.029000e-01 1.000000e+00 0.000000e+00
2.596000e-01 1.000000e+00 0.000000e+00
2.163000e-01 1.000000e+00 0.000000e+00
1.731000e-01 1.000000e+00 0.000000e+00
1.298000e-01 1.000000e+00 0.000000e+00
8.650000e-02 1.000000e+00 0.000000e+00
4.330000e-02 1.000000e+00 0.000000e+00
0.000000e+00 9.682000e-01 0.000000e+00
0.000000e+00 4.597000e-01 0.000000e+00
0.000000e+00 4.179000e-01 0.000000e+00
0.000000e+00 3.761000e-01 0.000000e+00
0.000000e+00 3.343000e-01 0.000000e+00
0.000000e+00 2.925000e-01 0.000000e+00
0.000000e+00 2.508000e-01 0.000000e+00
0.000000e+00 2.090000e-01 0.000000e+00
0.000000e+00 1.672000e-01 0.000000e+00
0.000000e+00 1.254000e-01 0.000000e+00
0.000000e+00 8.360000e-02 0.000000e+00
0.000000e+00 4.180000e-02 0.000000e+00
1.030000e-01 6.852000e-01 0.000000e+00
7.510000e-02 7.803000e-01 0.000000e+00
8.790000e-02 6.189000e-01 0.000000e+00
5.900000e-02 8.458000e-01 0.000000e+00
1.132000e-01 7.425000e-01 0.000000e+00
7.010000e-02 7.403000e-01 0.000000e+00
1.166000e-01 6.421000e-01 0.000000e+00
5.230000e-02 5.739000e-01 0.000000e+00
4.100000e-02 6.875000e-01 0.000000e+00
1.547000e-01 7.024000e-01 0.000000e+00
9.740000e-02 8.422000e-01 0.000000e+00
3.580000e-02 7.720000e-01 0.000000e+00
1.200000e-01 7.987000e-01 0.000000e+00
3.810000e-02 8.849000e-01 0.000000e+00
5.300000e-02 6.295000e-01 0.000000e+00
1.312000e-01 6.138000e-01 0.000000e+00
3.440000e-02 8.113000e-01 0.000000e+00
9.360000e-02 5.852000e-01 0.000000e+00
7.580000e-02 8.694000e-01 0.000000e+00
1.525000e-01 6.613000e-01 0.000000e+00
1.572000e-01 7.462000e-01 0.000000e+00
3.120000e-02 5.421000e-01 0.000000e+00
6.940000e-02 8.178000e-01 0.000000e+00
1.539000e-01 6.348000e-01 0.000000e+00
3.650000e-02 7.302000e-01 0.000000e+00
3.450000e-02 8.498000e-01 0.000000e+00
1.525000e-01 7.844000e-01 0.000000e+00
7.010000e-02 7.032000e-01 0.000000e+00
9.056000e-01 7.560000e-01 0.000000e+00
8.778000e-01 6.435000e-01 0.000000e+00
9.088000e-01 8.288000e-01 0.000000e+00
8.427000e-01 6.828000e-01 0.000000e+00
9.362000e-01 6.982000e-01 0.000000e+00
9.364000e-01 5.838000e-01 0.000000e+00
8.555000e-01 8.029000e-01 0.000000e+00
8.075000e-01 7.256000e-01 0.000000e+00
9.219000e-01 8.639000e-01 0.000000e+00
8.431000e-01 6.440000e-01 0.000000e+00
8.871000e-01 5.892000e-01 0.000000e+00
9.631000e-01 6.659000e-01 0.000000e+00
8.915000e-01 6.952000e-01 0.000000e+00
8.762000e-01 8.556000e-01 0.000000e+00
8.952000e-01 7.830000e-01 0.000000e+00
9.606000e-01 7.430000e-01 0.000000e+00
8.065000e-01 6.858000e-01 0.000000e+00
9.601000e-01 5.455000e-01 0.000000e+00
[...]
POINT_DATA 1300

SCALARS node_groups int 1
LOOKUP_TABLE default
0
0
0
0
0
0
0
0
0
0
0
0
0
0
0
0
0
0
0
0
0
0
0
0
0
0
0
0
0
0
0
0
0
0
0
0
0
0
0
0
0
0
0
0
0
0
0
0
0
0
0
0
0
0
0
0
0
0
0
0
0
0
0
0
0
0
0
0
0
0
0
0
0
0
0
0
0
0
0
0
0
0
0
0
0
0
0
0
0
0
0
0
0
0
0
0
0
0
0
0
0
0
0
0
0
0
0
0
0
0
0
0
0
0
0
0
0
0
0
0
0
0
0
0
0
0
0
0
0
0
0
0
0
0
0
0
0
0
0
0
0
0
0
0
0
0
0
0
0
0
0
0
0
0
0
0
0
0
0
0
0
0
0
0
0
0
0
0
0
0
0
0
0
0
0
0
0
0
0
0
0
0
0
0
0
0
0
0
0
0
0
0
0
0
0
0
0
0
0
0
0
0
0
0
0
0
0
0
0
0
0
0
0
0
0
0
0
0
0
0
0
0
0
0
0
0
0
0
0
0
0
0
0
0
0
0
0
0
0
0
0
0
0
0
0
0
0
0
0
0
0
0
0
0
0
0
0
0
0
0
0
0
0
0
0
0
0
0
0
0
0
0
0
0
0
0
0
0
0
0
0
0
0
0
0
0
0
0
0
0
0
0
0
0
0
0
0
0
0
0
0
0
0
0
0
0
0
0
0
0
0
0
0
0
0
0
0
0
0
0
0
0
0
0
0
0
0
0
0
0
0
0
0
0
0
0
0
0
0
0
0
0
0
0
0
0
0
0
0
0
0
0
0
0
0
0
0
0
0
0
0
0
0
0
0
0
0
0
0
0
0
0
0
0
0
0
0
0
0
0
0
0
0
0
0
0
0
0
0
0
0
0
0
0
0
0
0
0
0
0
0
0
0
0
0
0
0
0
0
0
0
0
0
0
0
0
0
0
0
0
0
0
0
0
0
0
0
0
0
0
0
0
0
0
0
0
0
0
0
0
0
0
0
0
0
0
0
0
0
0
0
0
0
0
0
0
0
0
0
0
0
0
0
0
0
0
0
0
0
0
0
0
0
0
0
0
0
0
0
0
0
0
0
0
0
0
0
0
0
0
0
0
0
0
0
0
0
0
0
0
0
0
0
0
0
0
0
0
0
0
0
0
0
0
0
0
0
0
0
0
0
0
0
0
0
0
0
0
0
0
0
0
0
0
0
0
0
0
0
0
0
0
0
0
0
0
0
0
0
0
0
0
0
0
0
0
0
0
0
0
0
0
0
0
0
0
0
0
0
0
0
0
0
0
0
0
0
0
0
0
0
0
0
0
0
0
0
0
0
0
0
0
0
0
0
0
0
0
0
0
0
0
0
0
0
0
0
0
0
0
0
0
0
0
0
0
0
0
0
0
0
0
0
0
0
0
0
0
0
0
0
0
0
0
0
0
0
0
0
0
0
0
0
0
0
0
0
0
0
0
0
0
0
0
0
0
0
0
0
0
0
0
0
0
0
0
0
0
0
0
0
0
0
0
0
0
0
0
0
0
0
0
0
0
0
0
0
0
0
0
0
0
0
0
0
0
0
0
0
0
0
0
0
0
0
0
0
0
0
0
0
0
0
0
0
0
0
0
0
0
0
0
0
0
0
0
0
0
0
0
0
0
0
0
0
0
0
0
0
0
0
0
0
0
0
0
0
0
0
0
0
0
0
0
0
0
0
0
0
0
0
0
0
0
0
0
0
0
0
0
0
0
0
0
0
0
0
0
0
0
0
0
0
0
0
0
0
0
0
0
0
0
0
0
0
0
0
0
0
0
0
0
0
0
0
0
0
0
0
0
0
0
0
0
0
0
0
0
0
0
0
0
0
0
0
0
0
0
0
0
0
0
0
0
0
0
0
0
0
0
0
0
0
0
0
0
0
0
0
0
0
0
0
0
0
0
0
0
0
0
0
0
0
0
0
0
0
0
0
0
0
0
0
0
0
0
0
0
0
0
0
0
0
0
0
0
0
0
0
0
0
0
0
0
0
0
0
0
0
0
0
0
0
0
0
0
0
0
0
0
0
0
0
0
0
0
0
0
0
0
0
0
0
0
0
0
0
0
0
0
0
0
0
0
0
0
0
0
0
0
0
0
0
0
0
0
0
0
0
0
0
0
0
0
0
0
0
0
0
0
0
0
0
0
0
0
0
0
0
0
0
0
0
0
0
0
0
0
0
0
0
0
0
0
0
0
0
0
0
0
0
0
0
0
0
0
0
0
0
0
0
0
0
0
0
0
0
0
0
0
0
0
0
0
0
0
0
0
0
0
0
0
0
0
0
0
0
0
0
0
0
0
0
0
0
0
0
0
0
0
0
0
0
0
0
0
0
0
0
0
0
0
0
0
0
0
0
0
0
0
0
0
0
0
0
0
0
0
0
0
0
0
0
0
0
0
0
0
0
0
0
0
0
0
0
0
0
0
0
0
0
0
0
0
0
0
0
0
0
0
0
0
0
0
0
0
0
0
0
0
0
0
0
0
0
0
0
0
0
0
0
0
0
0
0
0
0
0
0
0
0
0
0
0
0
0
0
0
0
0
0
0
0
0
0
0
0
0
0
0
0
0
0
0
0
0
0
0
0
0
0
0
0
0
0
0
0
0
0
0
0
0
0
0
0
0
0
0
0
0
0
0
0
0
0
0
0
0
0
0
0
0
0
0
0
0
0
0
0
0
0
0
0
0
0
0
0
0
0
0
0
0
0
0
0
0
0
0
0
0
0
0
0
0
0
0
0
0
0
0
0
0
0
0
0
0
0
0
0
0
0
0
0
0
0
0
0
0
0
0
0
0
0
0
0
0
0
0
0
0
0
0
0
0
0
0
0
0
0
0
0
0
0
0
0
0
0
0
0
0
0
0
0
0
0
0
0
0
0
0
0
0
0
0
0
0
0
0
0
0

VECTORS u float
1.937343e-02 9.609459e-02 8.505404e-15
9.342511e-03 -4.417858e-02 8.376449e-15
1.937343e-02 9.609459e-02 8.505404e-15
9.342511e-03 -4.417858e-02 8.376449e-15
8.917136e-02 2.203542e-02 8.546298e-15
6.189748e-02 3.807478e-02 9.555734e-15
-3.132061e-02 3.622791e-02 9.432554e-15
1.852257e-02 -8.487776e-02 9.529634e-15
6.189748e-02 3.807478e-02 9.555734e-15
-3.132061e-02 3.622791e-02 9.432554e-15
-2.650156e-02 7.220248e-03 1.034421e-14
1.100360e-01 1.084117e-02 1.033731e-14
-3.139713e-02 2.652183e-02 1.017648e-14
1.044098e-01 3.050448e-02 1.030194e-14
0.000000e+00 0.000000e+00 0.000000e+00
0.000000e+00 0.000000e+00 0.000000e+00
0.000000e+00 0.000000e+00 0.000000e+00
0.000000e+00 0.000000e+00 0.000000e+00
1.845538e-02 8.217181e-02 8.498748e-15
1.750961e-02 6.824609e-02 8.491094e-15
1.653121e-02 5.428129e-02 8.533385e-15
1.553522e-02 4.027353e-02 8.432780e-15
1.451098e-02 2.621383e-02 8.471246e-15
1.345987e-02 1.213346e-02 8.509491e-15
1.239822e-02 -1.948521e-03 8.486534e-15
1.133815e-02 -1.602054e-02 8.458802e-15
1.030942e-02 -3.009099e-02 8.472219e-15
4.936086e-03 9.384619e-02 8.537962e-15
-8.751292e-03 8.862243e-02 8.516700e-15
-2.113998e-02 8.070719e-02 8.544050e-15
-3.156720e-02 7.048805e-02 8.572065e-15
-3.945337e-02 5.835072e-02 8.584665e-15
-4.430585e-02 4.475326e-02 8.542317e-15
-4.652489e-02 3.001713e-02 8.566661e-15
-4.606866e-02 1.499811e-02 8.521220e-15
-4.305944e-02 4.447918e-04 8.537698e-15
-3.711255e-02 -1.286433e-02 8.504483e-15
-2.838357e-02 -2.439143e-02 8.479340e-15
-1.731569e-02 -3.372975e-02 8.527992e-15
-4.557705e-03 -4.046698e-02 8.448978e-15
1.845538e-02 8.217181e-02 8.498748e-15
1.750961e-02 6.824609e-02 8.491094e-15
1.653121e-02 5.428129e-02 8.533385e-15
1.553522e-02 4.027353e-02 8.432780e-15
1.451098e-02 2.621383e-02 8.471246e-15
1.345987e-02 1.213346e-02 8.509491e-15
1.239822e-02 -1.948521e-03 8.486534e-15
1.133815e-02 -1.602054e-02 8.458802e-15
1.030942e-02 -3.009099e-02 8.472219e-15
3.383183e-02 9.518791e-02 8.526505e-15
4.781812e-02 9.127247e-02 8.524566e-15
6.066436e-02 8.458243e-02 8.526041e-15
7.178201e-02 7.538816e-02 8.579916e-15
8.054529e-02 6.404534e-02 8.562581e-15
8.651165e-02 5.104454e-02 8.467455e-15
8.924460e-02 3.682610e-02 8.500289e-15
8.677272e-02 7.342559e-03 8.658936e-15
8.191665e-02 -6.389612e-03 8.623669e-15
7.411698e-02 -1.852999e-02 8.536742e-15
6.385615e-02 -2.863439e-02 8.441010e-15
5.150161e-02 -3.637280e-02 8.549300e-15
3.784766e-02 -4.191231e-02 8.454237e-15
2.365306e-02 -4.468369e-02 8.403614e-15
4.620763e-02 3.773940e-02 9.506341e-15
3.077946e-02 3.750986e-02 9.485555e-15
1.541948e-02 3.717788e-02 9.525754e-15
-3.738404e-05 3.679166e-02 9.449807e-15
-1.556302e-02 3.643496e-02 9.422060e-15
7.158211e-02 2.830137e-02 9.543819e-15
7.879123e-02 1.687341e-02 9.472384e-15
8.319452e-02 4.078854e-03 9.541023e-15
8.460906e-02 -9.623136e-03 9.572658e-15
8.358132e-02 -2.377902e-02 9.587168e-15
8.063725e-02 -3.769229e-02 9.625521e-15
7.539633e-02 -5.071885e-02 9.615844e-15
6.758519e-02 -6.218965e-02 9.597196e-15
5.745542e-02 -7.157350e-02 9.622423e-15
4.555950e-02 -7.870730e-02 9.599637e-15
3.235207e-02 -8.318306e-02 9.546254e-15
4.580312e-03 -8.369951e-02 9.474856e-15
-8.892775e-03 -7.971173e-02 9.487543e-15
-2.122265e-02 -7.312766e-02 9.500936e-15
-3.196273e-02 -6.427557e-02 9.456040e-15
-4.058003e-02 -5.333911e-02 9.500389e-15
-4.687215e-02 -4.076555e-02 9.511261e-15
-5.077619e-02 -2.709168e-02 9.497115e-15
-5.226972e-02 -1.293944e-02 9.427727e-15
-5.109780e-02 1.006629e-03 9.461289e-15
-4.726482e-02 1.416028e-02 9.408393e-15
-4.053875e-02 2.604641e-02 9.398293e-15
4.620763e-02 3.773940e-02 9.506341e-15
3.077946e-02 3.750986e-02 9.485555e-15
1.541948e-02 3.717788e-02 9.525754e-15
-3.738404e-05 3.679166e-02 9.449807e-15
-1.556302e-02 3.643496e-02 9.422060e-15
5.132137e-02 4.549680e-02 9.524115e-15
3.983705e-02 5.115946e-02 9.477124e-15
2.766626e-02 5.458474e-02 9.460535e-15
1.519397e-02 5.555863e-02 9.457340e-15
2.746360e-03 5.387625e-02 9.434671e-15
-9.469916e-03 4.998537e-02 9.416765e-15
-2.096271e-02 4.397087e-02 9.399596e-15
-2.542063e-02 -8.232487e-03 1.032320e-14
-2.072077e-02 -2.265269e-02 1.030984e-14
-1.247249e-02 -3.536213e-02 1.035307e-14
-1.242402e-03 -4.586711e-02 1.031631e-14
1.220791e-02 -5.363258e-02 1.031314e-14
2.708630e-02 -5.843702e-02 1.033127e-14
4.256526e-02 -5.992090e-02 1.034632e-14
5.796541e-02 -5.785221e-02 1.035038e-14
7.254310e-02 -5.233736e-02 1.034163e-14
8.560593e-02 -4.380292e-02 1.039384e-14
9.644697e-02 -3.272840e-02 1.036750e-14
1.043916e-01 -1.957766e-02 1.033109e-14
1.089442e-01 -4.846790e-03 1.031194e-14
1.079360e-01 2.660082e-02 1.032744e-14
1.028054e-01 4.164140e-02 1.030493e-14
9.472914e-02 5.505235e-02 1.033630e-14
8.375285e-02 6.611092e-02 1.034284e-14
7.056474e-02 7.427303e-02 1.037918e-14
5.584040e-02 7.918041e-02 1.041040e-14
4.035199e-02 8.049940e-02 1.038716e-14
2.493889e-02 7.818391e-02 1.037434e-14
1.032279e-02 7.241646e-02 1.039513e-14
-2.602815e-03 6.367119e-02 1.039089e-14
-1.307612e-02 5.219635e-02 1.033963e-14
-2.047119e-02 3.843508e-02 1.034352e-14
-2.485392e-02 2.305022e-02 1.030890e-14
-2.965309e-02 1.094371e-02 1.019394e-14
-2.455631e-02 -3.547390e-03 1.016313e-14
-1.602903e-02 -1.624385e-02 1.018973e-14
-4.506361e-03 -2.667265e-02 1.031469e-14
9.039851e-03 -3.482775e-02 1.016456e-14
2.365569e-02 -4.010129e-02 1.033277e-14
3.897672e-02 -4.158559e-02 1.030193e-14
5.427648e-02 -3.941392e-02 1.020149e-14
6.884872e-02 -3.374320e-02 1.022686e-14
8.181935e-02 -2.512513e-02 1.026152e-14
9.232149e-02 -1.385541e-02 1.024208e-14
9.965468e-02 -4.155381e-04 1.028335e-14
1.037052e-01 1.465075e-02 1.021584e-14
1.021659e-01 4.630066e-02 1.022249e-14
9.705414e-02 6.105942e-02 1.016577e-14
8.879527e-02 7.406271e-02 1.017856e-14
7.763728e-02 8.472391e-02 1.015251e-14
6.412705e-02 9.268802e-02 1.020073e-14
4.921085e-02 9.758751e-02 1.014703e-14
3.364498e-02 9.917850e-02 1.015489e-14
1.822603e-02 9.715094e-02 1.022244e-14
3.712691e-03 9.162632e-02 1.019942e-14
-9.080250e-03 8.288801e-02 1.021951e-14
-1.935633e-02 7.143675e-02 1.023811e-14
-2.655558e-02 5.779197e-02 1.021050e-14
-3.040919e-02 4.253260e-02 1.013546e-14
1.314042e-02 6.869130e-03 6.789159e-15
2.513737e-02 1.722036e-02 8.209721e-15
3.624615e-02 2.909069e-02 9.133671e-15
4.537399e-02 4.133460e-02 9.699944e-15
4.859296e-02 5.129990e-02 1.002953e-14
4.742465e-02 5.681227e-02 1.019327e-14
4.325213e-02 5.329988e-02 1.028715e-14
4.116973e-02 3.948471e-02 1.032313e-14
3.981513e-02 1.789315e-02 1.031734e-14
3.764403e-02 -2.613290e-03 1.028935e-14
3.890855e-02 -1.255358e-02 1.018827e-14
4.302307e-02 -1.356646e-02 1.008261e-14
5.317233e-02 -1.490194e-03 9.803373e-15
-1.622075e-02 1.552579e-03 7.925604e-15
-1.045008e-03 1.533191e-02 6.726217e-15
-6.839841e-03 2.178932e-02 8.666907e-15
-8.793837e-03 1.737046e-02 9.285170e-15
-4.677034e-03 2.512482e-03 9.602932e-15
8.076019e-03 -1.269740e-02 9.786258e-15
2.233815e-02 -2.576612e-02 9.853005e-15
3.333862e-02 -2.769737e-02 9.787004e-15
3.871134e-02 -2.256211e-02 9.785329e-15
4.018391e-02 -6.241036e-03 9.606257e-15
3.839651e-02 1.871067e-02 9.310418e-15
3.173557e-02 5.169364e-02 8.988789e-15
3.603143e-03 -1.781481e-02 5.998170e-15
-1.622075e-02 1.552579e-03 7.925604e-15
5.317233e-02 -1.490194e-03 9.803373e-15
4.302307e-02 -1.356646e-02 1.008261e-14
3.890855e-02 -1.255358e-02 1.018827e-14
3.764403e-02 -2.613290e-03 1.028935e-14
3.981513e-02 1.789315e-02 1.031734e-14
4.116973e-02 3.948471e-02 1.032313e-14
4.325213e-02 5.329988e-02 1.028715e-14
4.742465e-02 5.681227e-02 1.019327e-14
4.859296e-02 5.129990e-02 1.002953e-14
4.537399e-02 4.133460e-02 9.699944e-15
3.624615e-02 2.909069e-02 9.133671e-15
2.513737e-02 1.722036e-02 8.209721e-15
1.314042e-02 6.869130e-03 6.789159e-15
3.603143e-03 -1.781481e-02 5.998170e-15
3.173557e-02 5.169364e-02 8.988789e-15
3.839651e-02 1.871067e-02 9.310418e-15
4.018391e-02 -6.241036e-03 9.606257e-15
3.871134e-02 -2.256211e-02 9.785329e-15
3.333862e-02 -2.769737e-02 9.787004e-15
2.233815e-02 -2.576612e-02 9.853005e-15
8.076019e-03 -1.269740e-02 9.786258e-15
-4.677034e-03 2.512482e-03 9.602932e-15
-8.793837e-03 1.737046e-02 9.285170e-15
-6.839841e-03 2.178932e-02 8.666907e-15
-1.045008e-03 1.533191e-02 6.726217e-15
-1.686389e-02 3.901047e-02 8.535107e-15
-1.037616e-02 7.620178e-03 8.497366e-15
-1.085107e-02 6.006129e-02 8.538636e-15
-7.031935e-03 -1.389381e-02 8.453812e-15
-2.125600e-02 2.059779e-02 8.510231e-15
-7.840943e-03 2.051988e-02 8.525437e-15
-2.029605e-02 5.318354e-02 8.570635e-15
1.288963e-03 7.383306e-02 8.529039e-15
2.449870e-03 3.711026e-02 8.447156e-15
-3.324965e-02 3.447835e-02 8.529649e-15
-1.896408e-02 -1.208328e-02 8.472513e-15
2.065234e-03 9.644348e-03 8.527340e-15
-2.480733e-02 2.428690e-03 8.500746e-15
-1.443676e-03 -2.688971e-02 8.483093e-15
-8.298773e-05 5.602739e-02 8.539343e-15
-2.443509e-02 6.252831e-02 8.562212e-15
1.525318e-03 -3.118935e-03 8.488857e-15
-1.201789e-02 7.094192e-02 8.557220e-15
-1.289404e-02 -2.124495e-02 8.479005e-15
-3.186313e-02 4.773170e-02 8.573772e-15
-3.493758e-02 2.027150e-02 8.494980e-15
8.630181e-03 8.363075e-02 8.496267e-15
-9.561214e-03 -4.651960e-03 8.491336e-15
-3.192270e-02 5.627930e-02 8.556052e-15
2.857866e-03 2.320807e-02 8.495242e-15
5.346599e-04 -1.558846e-02 8.444616e-15
-3.449896e-02 7.710843e-03 8.523953e-15
-6.993546e-03 3.254760e-02 8.485531e-15
4.310896e-02 1.269717e-02 8.451154e-15
5.470744e-02 4.853527e-02 8.504890e-15
4.044485e-02 -1.068229e-02 8.459449e-15
6.458045e-02 3.529009e-02 8.495612e-15
3.495597e-02 3.187451e-02 8.491648e-15
3.772591e-02 6.865224e-02 8.505040e-15
5.776109e-02 -3.293189e-03 8.502609e-15
7.432878e-02 2.078549e-02 8.576293e-15
3.550028e-02 -2.174320e-02 8.474091e-15
6.560822e-02 4.779925e-02 8.504152e-15
5.322780e-02 6.608975e-02 8.541590e-15
2.732463e-02 4.273943e-02 8.446394e-15
4.901808e-02 3.210595e-02 8.495318e-15
5.013769e-02 -1.974251e-02 8.474058e-15
4.573517e-02 3.812499e-03 8.439911e-15
2.623234e-02 1.779883e-02 8.525899e-15
7.575281e-02 3.369500e-02 8.536958e-15
3.109420e-02 8.131032e-02 8.522765e-15
2.822977e-02 5.609999e-02 8.496770e-15
7.160937e-02 7.427983e-03 8.580650e-15
7.620180e-02 4.609729e-02 8.513775e-15
3.843283e-02 2.361611e-02 8.484439e-15
4.375599e-02 7.781457e-02 8.530559e-15
5.810876e-02 2.192845e-02 8.542746e-15
4.039056e-02 5.860931e-02 8.477402e-15
5.993004e-02 1.003060e-02 8.543253e-15
2.861941e-02 -2.850188e-03 8.466172e-15
2.566476e-02 3.068175e-02 8.476941e-15
5.631606e-02 3.871225e-02 8.465098e-15
4.104701e-02 4.298751e-02 8.448015e-15
6.717644e-02 6.125372e-02 8.531145e-15
6.486597e-02 -9.934426e-03 8.495661e-15
2.062267e-02 -3.095062e-02 8.458542e-15
3.771977e-02 -4.194091e-03 8.429495e-15
1.843317e-02 -2.046158e-02 8.425989e-15
4.888895e-02 -7.647279e-03 8.469787e-15
2.911871e-02 7.044225e-02 8.480058e-15
7.470621e-02 5.740881e-02 8.526606e-15
1.689286e-02 -3.068989e-02 9.541061e-15
-1.517755e-02 -3.785630e-04 9.469139e-15
4.315655e-02 -4.083006e-03 9.497784e-15
-9.049644e-03 -3.528770e-02 9.479618e-15
5.624465e-02 -3.672780e-02 9.596180e-15
2.017346e-02 -5.627346e-02 9.523097e-15
1.274148e-02 7.777882e-03 9.485747e-15
-2.266474e-02 -2.293630e-02 9.458891e-15
6.219324e-02 -1.049200e-02 9.550233e-15
1.807920e-03 -5.812376e-02 9.506207e-15
3.219329e-02 1.457737e-02 9.507842e-15
-1.995703e-02 1.153153e-02 9.438969e-15
3.779614e-02 -5.644116e-02 9.540181e-15
5.143327e-02 1.670581e-02 9.521284e-15
1.050373e-03 -2.037125e-02 9.499128e-15
3.616141e-02 -1.929481e-02 9.492881e-15
6.512331e-03 -4.402753e-02 9.525652e-15
-3.163952e-02 -5.891565e-03 9.412358e-15
-4.084611e-05 1.802973e-02 9.475178e-15
3.169485e-02 -1.440460e-03 9.488652e-15
-3.370262e-02 -3.782773e-02 9.479972e-15
2.992131e-02 -4.329092e-02 9.544583e-15
6.748425e-02 -3.790436e-02 9.607596e-15
-1.688039e-02 -5.704950e-02 9.480530e-15
1.262481e-02 -6.897156e-02 9.534757e-15
5.604340e-02 -5.072296e-02 9.600437e-15
-2.623089e-03 -6.439746e-03 9.482476e-15
3.167617e-02 -6.846525e-02 9.541563e-15
1.953992e-02 2.371128e-02 9.498420e-15
1.459352e-02 -4.960204e-03 9.487259e-15
-3.464322e-02 1.039299e-02 9.398645e-15
-1.174649e-02 -2.265313e-02 9.466594e-15
-3.732903e-02 -1.919808e-02 9.445946e-15
6.603749e-02 6.447517e-03 9.513421e-15
4.818558e-02 -2.235423e-02 9.546489e-15
7.062090e-02 -2.433442e-02 9.574260e-15
7.288887e-02 -1.063813e-02 9.575654e-15
-9.271826e-03 -6.507279e-02 9.491393e-15
4.291871e-02 2.137275e-02 9.510994e-15
-1.134283e-02 1.017349e-02 9.478533e-15
-2.843721e-03 -7.142307e-02 9.481665e-15
4.172062e-02 -4.600040e-02 9.557596e-15
7.924681e-03 2.304210e-02 9.483810e-15
-2.503193e-02 4.586891e-03 9.427821e-15
-3.123156e-02 -4.908565e-02 9.481084e-15
-2.022871e-02 -1.083872e-02 9.443813e-15
3.942857e-02 1.025387e-02 9.508981e-15
9.125149e-03 -5.267004e-02 9.503162e-15
-4.610379e-03 -4.798702e-02 9.459135e-15
5.317525e-02 -1.091528e-02 9.544211e-15
5.203265e-02 3.988354e-03 9.543424e-15
3.675515e-03 -3.257249e-02 9.496690e-15
5.893423e-02 2.161028e-02 9.533871e-15
-8.458448e-03 2.126449e-02 9.461084e-15
-2.376113e-02 2.099559e-02 9.418184e-15
1.832522e-02 -4.294016e-02 9.529959e-15
2.456318e-02 9.360451e-03 9.479648e-15
4.283867e-02 -6.993083e-02 9.586311e-15
4.448032e-02 -3.427525e-02 9.552394e-15
6.766548e-04 8.514180e-03 9.469112e-15
4.419891e-02 -9.926282e-03 9.504720e-15
1.463377e-02 -1.817774e-02 9.518011e-15
2.032457e-02 -7.421075e-02 9.552717e-15
3.165914e-02 2.436416e-02 9.516027e-15
-1.268488e-02 -1.387195e-02 9.475031e-15
6.685447e-02 -4.622569e-02 9.617374e-15
-2.091067e-02 -3.707960e-02 9.460960e-15
3.140143e-02 -3.195022e-02 9.507450e-15
-3.937426e-02 2.316593e-03 9.440815e-15
2.994197e-02 -5.180007e-02 9.540669e-15
7.478002e-02 1.505812e-04 9.532608e-15
4.829785e-02 -6.270839e-02 9.634357e-15
5.906387e-02 -2.432808e-02 9.561326e-15
1.811476e-02 4.693177e-02 9.463228e-15
1.314487e-02 4.512653e-02 9.476939e-15
-1.197992e-02 4.345630e-02 9.407876e-15
4.246741e-02 4.466635e-02 9.491943e-15
4.178010e-02 1.064259e-02 1.033588e-14
7.939580e-02 1.386162e-02 1.032262e-14
3.397007e-03 4.848425e-03 1.030927e-14
3.186851e-02 -2.627542e-02 1.036251e-14
5.064498e-02 4.671490e-02 1.037457e-14
6.610056e-02 -1.292001e-02 1.035441e-14
1.717777e-02 3.360739e-02 1.035421e-14
7.227568e-03 -1.281790e-02 1.034612e-14
7.540560e-02 3.253092e-02 1.035281e-14
8.101199e-02 -7.553068e-03 1.034837e-14
2.033543e-03 2.699409e-02 1.036017e-14
5.368960e-02 -3.573635e-02 1.034275e-14
2.829660e-02 5.594851e-02 1.039150e-14
5.737072e-02 2.119505e-02 1.034616e-14
2.567176e-02 -1.022825e-03 1.034504e-14
6.242652e-02 5.503046e-03 1.034540e-14
2.075547e-02 1.480168e-02 1.033679e-14
4.249188e-02 -1.083343e-02 1.036165e-14
4.095247e-02 3.217205e-02 1.035258e-14
9.040674e-02 2.721013e-02 1.032111e-14
-7.928123e-03 -7.816482e-03 1.031333e-14
1.471391e-02 -3.293135e-02 1.031096e-14
6.792531e-02 5.319051e-02 1.038056e-14
7.592233e-02 -2.818912e-02 1.038707e-14
5.301539e-03 4.732707e-02 1.036249e-14
9.261164e-02 8.751576e-03 1.033604e-14
-9.163353e-03 1.018264e-02 1.033114e-14
3.275231e-02 -4.144013e-02 1.034058e-14
4.856250e-02 6.193825e-02 1.037304e-14
6.425156e-02 -4.153949e-02 1.035051e-14
1.806665e-02 6.171681e-02 1.037462e-14
4.672938e-02 -2.055839e-02 1.034168e-14
3.583181e-02 4.104956e-02 1.036563e-14
-9.746939e-03 -1.954638e-02 1.029037e-14
9.212497e-02 3.864278e-02 1.030798e-14
7.238884e-02 2.813127e-04 1.033541e-14
1.062672e-02 1.948315e-02 1.032118e-14
-2.817881e-06 -2.815593e-02 1.031109e-14
8.246573e-02 4.753944e-02 1.033777e-14
8.791370e-02 -1.921018e-02 1.033095e-14
-4.779144e-03 3.857506e-02 1.033910e-14
6.878928e-02 1.840274e-02 1.033939e-14
1.394786e-02 5.184482e-04 1.034666e-14
3.503795e-02 6.716959e-02 1.039408e-14
4.704139e-02 -4.662406e-02 1.035161e-14
9.521234e-02 -1.168801e-02 1.031969e-14
-1.158366e-02 3.073722e-02 1.034592e-14
6.247187e-02 3.459783e-02 1.036588e-14
2.038062e-02 -1.457153e-02 1.033349e-14
7.411559e-02 -1.563857e-02 1.035501e-14
8.524051e-03 3.540504e-02 1.035563e-14
9.799967e-02 1.439593e-02 1.032479e-14
-1.489376e-02 4.294542e-03 1.034162e-14
1.966335e-02 -4.297368e-02 1.033692e-14
6.269573e-02 6.346837e-02 1.037296e-14
4.501751e-02 -3.255047e-02 1.035140e-14
3.707749e-02 5.295717e-02 1.038485e-14
5.618145e-02 -6.661793e-03 1.036351e-14
2.713021e-02 2.781740e-02 1.035171e-14
5.187552e-02 9.219271e-03 1.033713e-14
3.323103e-02 -1.227573e-02 1.036106e-14
4.989506e-02 3.234364e-02 1.037215e-14
3.118965e-02 1.201275e-02 1.034296e-14
4.875996e-02 1.120839e-03 1.035170e-14
3.663541e-02 2.374254e-02 1.035091e-14
5.637175e-02 -4.888308e-02 1.033365e-14
2.606875e-02 6.917759e-02 1.036945e-14
6.035558e-02 -2.429081e-02 1.036076e-14
2.200919e-02 4.448884e-02 1.036117e-14
3.708161e-02 -6.999026e-04 1.033072e-14
4.647713e-02 2.200758e-02 1.034782e-14
3.648301e-02 2.853684e-02 1.021299e-14
-2.028606e-03 2.127137e-02 1.022265e-14
7.480440e-02 3.628590e-02 1.024696e-14
3.282907e-02 -8.118464e-03 1.023737e-14
3.947092e-02 6.597388e-02 1.023080e-14
6.357122e-02 -7.521765e-04 1.023826e-14
9.065811e-03 5.947246e-02 1.024095e-14
6.674950e-02 5.604475e-02 1.020508e-14
5.952228e-03 2.083324e-03 1.019132e-14
-7.184738e-03 4.544276e-02 1.022147e-14
8.023747e-02 1.209765e-02 1.029650e-14
5.480389e-02 -1.467658e-02 1.025200e-14
1.769981e-02 1.435110e-02 1.022757e-14
5.528872e-02 4.312056e-02 1.024528e-14
2.143765e-02 3.524214e-02 1.023109e-14
5.167428e-02 2.213182e-02 1.027883e-14