# vtk DataFile Version 2.0
step 0 time 0.000000e+00 normalized time 0.000000e+00, generated by ipykernel_launcher.py
ASCII
DATASET UNSTRUCTURED_GRID

POINTS 255 float
-4.900000e-03 -5.500000e-04 0.000000e+00
-4.900000e-03 -5.500000e-04 6.250000e-03
-4.900000e-03 -5.500000e-04 1.250000e-02
-4.900000e-03 -5.500000e-04 1.875000e-02
-4.900000e-03 -5.500000e-04 2.500000e-02
-4.900000e-03 -5.500000e-04 3.125000e-02
-4.900000e-03 -5.500000e-04 3.750000e-02
-4.900000e-03 -5.500000e-04 4.375000e-02
-4.900000e-03 -5.500000e-04 5.000000e-02
-4.900000e-03 -5.500000e-04 5.625000e-02
-4.900000e-03 -5.500000e-04 6.250000e-02
-4.900000e-03 -5.500000e-04 6.875000e-02
-4.900000e-03 -5.500000e-04 7.500000e-02
-4.900000e-03 -5.500000e-04 8.125000e-02
-4.900000e-03 -5.500000e-04 8.750000e-02
-4.900000e-03 -5.500000e-04 9.375000e-02
-4.900000e-03 -5.500000e-04 1.000000e-01
-4.900000e-03 0.000000e+00 0.000000e+00
-4.900000e-03 0.000000e+00 6.250000e-03
-4.900000e-03 0.000000e+00 1.250000e-02
-4.900000e-03 0.000000e+00 1.875000e-02
-4.900000e-03 0.000000e+00 2.500000e-02
-4.900000e-03 0.000000e+00 3.125000e-02
-4.900000e-03 0.000000e+00 3.750000e-02
-4.900000e-03 0.000000e+00 4.375000e-02
-4.900000e-03 0.000000e+00 5.000000e-02
-4.900000e-03 0.000000e+00 5.625000e-02
-4.900000e-03 0.000000e+00 6.250000e-02
-4.900000e-03 0.000000e+00 6.875000e-02
-4.900000e-03 0.000000e+00 7.500000e-02
-4.900000e-03 0.000000e+00 8.125000e-02
-4.900000e-03 0.000000e+00 8.750000e-02
-4.900000e-03 0.000000e+00 9.375000e-02
-4.900000e-03 0.000000e+00 1.000000e-01
-4.900000e-03 5.500000e-04 0.000000e+00
-4.900000e-03 5.500000e-04 6.250000e-03
-4.900000e-03 5.500000e-04 1.250000e-02
-4.900000e-03 5.500000e-04 1.875000e-02
-4.900000e-03 5.500000e-04 2.500000e-02
-4.900000e-03 5.500000e-04 3.125000e-02
-4.900000e-03 5.500000e-04 3.750000e-02
-4.900000e-03 5.500000e-04 4.375000e-02
-4.900000e-03 5.500000e-04 5.000000e-02
-4.900000e-03 5.500000e-04 5.625000e-02
-4.900000e-03 5.500000e-04 6.250000e-02
-4.900000e-03 5.500000e-04 6.875000e-02
-4.900000e-03 5.500000e-04 7.500000e-02
-4.900000e-03 5.500000e-04 8.125000e-02
-4.900000e-03 5.500000e-04 8.750000e-02
-4.900000e-03 5.500000e-04 9.375000e-02
-4.900000e-03 5.500000e-04 1.000000e-01
-2.450000e-03 -5.500000e-04 0.000000e+00
-2.450000e-03 -5.500000e-04 6.250000e-03
-2.450000e-03 -5.500000e-04 1.250000e-02
-2.450000e-03 -5.500000e-04 1.875000e-02
-2.450000e-03 -5.500000e-04 2.500000e-02
-2.450000e-03 -5.500000e-04 3.125000e-02
-2.450000e-03 -5.500000e-04 3.750000e-02
-2.450000e-03 -5.500000e-04 4.375000e-02
-2.450000e-03 -5.500000e-04 5.000000e-02
-2.450000e-03 -5.500000e-04 5.625000e-02
-2.450000e-03 -5.500000e-04 6.250000e-02
-2.450000e-03 -5.500000e-04 6.875000e-02
-2.450000e-03 -5.500000e-04 7.500000e-02
-2.450000e-03 -5.500000e-04 8.125000e-02
-2.450000e-03 -5.500000e-04 8.750000e-02
-2.450000e-03 -5.500000e-04 9.375000e-02
-2.450000e-03 -5.500000e-04 1.000000e-01
-2.450000e-03 0.000000e+00 0.000000e+00
-2.450000e-03 0.000000e+00 6.250000e-03
-2.450000e-03 0.000000e+00 1.250000e-02
-2.450000e-03 0.000000e+00 1.875000e-02
-2.450000e-03 0.000000e+00 2.500000e-02
-2.450000e-03 0.000000e+00 3.125000e-02
-2.450000e-03 0.000000e+00 3.750000e-02
-2.450000e-03 0.000000e+00 4.375000e-02
-2.450000e-03 0.000000e+00 5.000000e-02
-2.450000e-03 0.000000e+00 5.625000e-02
-2.450000e-03 0.000000e+00 6.250000e-02
-2.450000e-03 0.000000e+00 6.875000e-02
-2.450000e-03 0.000000e+00 7.500000e-02
-2.450000e-03 0.000000e+00 8.125000e-02
-2.450000e-03 0.000000e+00 8.750000e-02
-2.450000e-03 0.000000e+00 9.375000e-02
-2.450000e-03 0.000000e+00 1.000000e-01
-2.450000e-03 5.500000e-04 0.000000e+00
-2.450000e-03 5.500000e-04 6.250000e-03
-2.450000e-03 5.500000e-04 1.250000e-02
-2.450000e-03 5.500000e-04 1.875000e-02
-2.450000e-03 5.500000e-04 2.500000e-02
-2.450000e-03 5.500000e-04 3.125000e-02
-2.450000e-03 5.500000e-04 3.750000e-02
-2.450000e-03 5.500000e-04 4.375000e-02
-2.450000e-03 5.500000e-04 5.000000e-02
-2.450000e-03 5.500000e-04 5.625000e-02
-2.450000e-03 5.500000e-04 6.250000e-02
-2.450000e-03 5.500000e-04 6.875000e-02
-2.450000e-03 5.500000e-04 7.500000e-02
-2.450000e-03 5.500000e-04 8.125000e-02
-2.450000e-03 5.500000e-04 8.750000e-02
-2.450000e-03 5.500000e-04 9.375000e-02
-2.450000e-03 5.500000e-04 1.000000e-01
0.000000e+00 -5.500000e-04 0.000000e+00
0.000000e+00 -5.500000e-04 6.250000e-03
0.000000e+00 -5.500000e-04 1.250000e-02
0.000000e+00 -5.500000e-04 1.875000e-02
0.000000e+00 -5.500000e-04 2.500000e-02
0.000000e+00 -5.500000e-04 3.125000e-02
0.000000e+00 -5.500000e-04 3.750000e-02
0.000000e+00 -5.500000e-04 4.375000e-02
0.000000e+00 -5.500000e-04 5.000000e-02
0.000000e+00 -5.500000e-04 5.625000e-02
0.000000e+00 -5.500000e-04 6.250000e-02
0.000000e+00 -5.500000e-04 6.875000e-02
0.000000e+00 -5.500000e-04 7.500000e-02
0.000000e+00 -5.500000e-04 8.125000e-02
0.000000e+00 -5.500000e-04 8.750000e-02
0.000000e+00 -5.500000e-04 9.375000e-02
0.000000e+00 -5.500000e-04 1.000000e-01
0.000000e+00 0.000000e+00 0.000000e+00
0.000000e+00 0.000000e+00 6.250000e-03
0.000000e+00 0.000000e+00 1.250000e-02
0.000000e+00 0.000000e+00 1.875000e-02
0.000000e+00 0.000000e+00 2.500000e-02
0.000000e+00 0.000000e+00 3.125000e-02
0.000000e+00 0.000000e+00 3.750000e-02
0.000000e+00 0.000000e+00 4.375000e-02
0.000000e+00 0.000000e+00 5.000000e-02
0.000000e+00 0.000000e+00 5.625000e-02
0.000000e+00 0.000000e+00 6.250000e-02
0.000000e+00 0.000000e+00 6.875000e-02
0.000000e+00 0.000000e+00 7.500000e-02
0.000000e+00 0.000000e+00 8.125000e-02
0.000000e+00 0.000000e+00 8.750000e-02
0.000000e+00 0.000000e+00 9.375000e-02
0.000000e+00 0.000000e+00 1.000000e-01
0.000000e+00 5.500000e-04 0.000000e+00
0.000000e+00 5.500000e-04 6.250000e-03
0.000000e+00 5.500000e-04 1.250000e-02
0.000000e+00 5.500000e-04 1.875000e-02
0.000000e+00 5.500000e-04 2.500000e-02
0.000000e+00 5.500000e-04 3.125000e-02
0.000000e+00 5.500000e-04 3.750000e-02
0.000000e+00 5.500000e-04 4.375000e-02
0.000000e+00 5.500000e-04 5.000000e-02
0.000000e+00 5.500000e-04 5.625000e-02
0.000000e+00 5.500000e-04 6.250000e-02
0.000000e+00 5.500000e-04 6.875000e-02
0.000000e+00 5.500000e-04 7.500000e-02
0.000000e+00 5.500000e-04 8.125000e-02
0.000000e+00 5.500000e-04 8.750000e-02
0.000000e+00 5.500000e-04 9.375000e-02
0.000000e+00 5.500000e-04 1.000000e-01
2.450000e-03 -5.500000e-04 0.000000e+00
2.450000e-03 -5.500000e-04 6.250000e-03
2.450000e-03 -5.500000e-04 1.250000e-02
2.450000e-03 -5.500000e-04 1.875000e-02
2.450000e-03 -5.500000e-04 2.500000e-02
2.450000e-03 -5.500000e-04 3.125000e-02
2.450000e-03 -5.500000e-04 3.750000e-02
2.450000e-03 -5.500000e-04 4.375000e-02
2.450000e-03 -5.500000e-04 5.000000e-02
2.450000e-03 -5.500000e-04 5.625000e-02
2.450000e-03 -5.500000e-04 6.250000e-02
2.450000e-03 -5.500000e-04 6.875000e-02
2.450000e-03 -5.500000e-04 7.500000e-02
2.450000e-03 -5.500000e-04 8.125000e-02
2.450000e-03 -5.500000e-04 8.750000e-02
2.450000e-03 -5.500000e-04 9.375000e-02
2.450000e-03 -5.500000e-04 1.000000e-01
2.450000e-03 0.000000e+00 0.000000e+00
2.450000e-03 0.000000e+00 6.250000e-03
2.450000e-03 0.000000e+00 1.250000e-02
2.450000e-03 0.000000e+00 1.875000e-02
2.450000e-03 0.000000e+00 2.500000e-02
2.450000e-03 0.000000e+00 3.125000e-02
2.450000e-03 0.000000e+00 3.750000e-02
2.450000e-03 0.000000e+00 4.375000e-02
2.450000e-03 0.000000e+00 5.000000e-02
2.450000e-03 0.000000e+00 5.625000e-02
2.450000e-03 0.000000e+00 6.250000e-02
2.450000e-03 0.000000e+00 6.875000e-02
2.450000e-03 0.000000e+00 7.500000e-02
2.450000e-03 0.000000e+00 8.125000e-02
2.450000e-03 0.000000e+00 8.750000e-02
2.450000e-03 0.000000e+00 9.375000e-02
2.450000e-03 0.000000e+00 1.000000e-01
2.450000e-03 5.500000e-04 0.000000e+00
2.450000e-03 5.500000e-04 6.250000e-03
2.450000e-03 5.500000e-04 1.250000e-02
2.450000e-03 5.500000e-04 1.875000e-02
2.450000e-03 5.500000e-04 2.500000e-02
2.450000e-03 5.500000e-04 3.125000e-02
2.450000e-03 5.500000e-04 3.750000e-02
2.450000e-03 5.500000e-04 4.375000e-02
2.450000e-03 5.500000e-04 5.000000e-02
2.450000e-03 5.500000e-04 5.625000e-02
2.450000e-03 5.500000e-04 6.250000e-02
2.450000e-03 5.500000e-04 6.875000e-02
2.450000e-03 5.500000e-04 7.500000e-02
2.450000e-03 5.500000e-04 8.125000e-02
2.450000e-03 5.500000e-04 8.750000e-02
2.450000e-03 5.500000e-04 9.375000e-02
2.450000e-03 5.500000e-04 1.000000e-01
4.900000e-03 -5.500000e-04 0.000000e+00
4.900000e-03 -5.500000e-04 6.250000e-03
4.900000e-03 -5.500000e-04 1.250000e-02
4.900000e-03 -5.500000e-04 1.875000e-02
4.900000e-03 -5.500000e-04 2.500000e-02
4.900000e-03 -5.500000e-04 3.125000e-02
4.900000e-03 -5.500000e-04 3.750000e-02
4.900000e-03 -5.500000e-04 4.375000e-02
4.900000e-03 -5.500000e-04 5.000000e-02
4.900000e-03 -5.500000e-04 5.625000e-02
4.900000e-03 -5.500000e-04 6.250000e-02
4.900000e-03 -5.500000e-04 6.875000e-02
4.900000e-03 -5.500000e-04 7.500000e-02
4.900000e-03 -5.500000e-04 8.125000e-02
4.900000e-03 -5.500000e-04 8.750000e-02
4.900000e-03 -5.500000e-04 9.375000e-02
4.900000e-03 -5.500000e-04 1.000000e-01
4.900000e-03 0.000000e+00 0.000000e+00
4.900000e-03 0.000000e+00 6.250000e-03
4.900000e-03 0.000000e+00 1.250000e-02
4.900000e-03 0.000000e+00 1.875000e-02
4.900000e-03 0.000000e+00 2.500000e-02
4.900000e-03 0.000000e+00 3.125000e-02
4.900000e-03 0.000000e+00 3.750000e-02
4.900000e-03 0.000000e+00 4.375000e-02
4.900000e-03 0.000000e+00 5.000000e-02
4.900000e-03 0.000000e+00 5.625000e-02
4.900000e-03 0.000000e+00 6.250000e-02
4.900000e-03 0.000000e+00 6.875000e-02
4.900000e-03 0.000000e+00 7.500000e-02
4.900000e-03 0.000000e+00 8.125000e-02
4.900000e-03 0.000000e+00 8.750000e-02
4.900000e-03 0.000000e+00 9.375000e-02
4.900000e-03 0.000000e+00 1.000000e-01
4.900000e-03 5.500000e-04 0.000000e+00
4.900000e-03 5.500000e-04 6.250000e-03
4.900000e-03 5.500000e-04 1.250000e-02
4.900000e-03 5.500000e-04 1.875000e-02
4.900000e-03 5.500000e-04 2.500000e-02
4.900000e-03 5.500000e-04 3.125000e-02
4.900000e-03 5.500000e-04 3.750000e-02
4.900000e-03 5.500000e-04 4.375000e-02
4.900000e-03 5.500000e-04 5.000000e-02
4.900000e-03 5.500000e-04 5.625000e-02
4.900000e-03 5.500000e-04 6.250000e-02
4.900000e-03 5.500000e-04 6.875000e-02
4.900000e-03 5.500000e-04 7.500000e-02
4.900000e-03 5.500000e-04 8.125000e-02
4.900000e-03 5.500000e-04 8.750000e-02
4.900000e-03 5.500000e-04 9.375000e-02
4.900000e-03 5.500000e-04 1.000000e-01

CELLS 128 1152
8 0 51 68 17 1 52 69 18 
8 1 52 69 18 2 53 70 19 
8 2 53 70 19 3 54 71 20 
8 3 54 71 20 4 55 72 21 
8 4 55 72 21 5 56 73 22 
8 5 56 73 22 6 57 74 23 
8 6 57 74 23 7 58 75 24 
8 7 58 75 24 8 59 76 25 
8 8 59 76 25 9 60 77 26 
8 9 60 77 26 10 61 78 27 
8 10 61 78 27 11 62 79 28 
8 11 62 79 28 12 63 80 29 
8 12 63 80 29 13 64 81 30 
8 13 64 81 30 14 65 82 31 
8 14 65 82 31 15 66 83 32 
8 15 66 83 32 16 67 84 33 
8 17 68 85 34 18 69 86 35 
8 18 69 86 35 19 70 87 36 
8 19 70 87 36 20 71 88 37 
8 20 71 88 37 21 72 89 38 
8 21 72 89 38 22 73 90 39 
8 22 73 90 39 23 74 91 40 
8 23 74 91 40 24 75 92 41 
8 24 75 92 41 25 76 93 42 
8 25 76 93 42 26 77 94 43 
8 26 77 94 43 27 78 95 44 
8 27 78 95 44 28 79 96 45 
8 28 79 96 45 29 80 97 46 
8 29 80 97 46 30 81 98 47 
8 30 81 98 47 31 82 99 48 
8 31 82 99 48 32 83 100 49 
8 32 83 100 49 33 84 101 50 
8 51 102 119 68 52 103 120 69 
8 52 103 120 69 53 104 121 70 
8 53 104 121 70 54 105 122 71 
8 54 105 122 71 55 106 123 72 
8 55 106 123 72 56 107 124 73 
8 56 107 124 73 57 108 125 74 
8 57 108 125 74 58 109 126 75 
8 58 109 126 75 59 110 127 76 
8 59 110 127 76 60 111 128 77 
8 60 111 128 77 61 112 129 78 
8 61 112 129 78 62 113 130 79 
8 62 113 130 79 63 114 131 80 
8 63 114 131 80 64 115 132 81 
8 64 115 132 81 65 116 133 82 
8 65 116 133 82 66 117 134 83 
8 66 117 134 83 67 118 135 84 
8 68 119 136 85 69 120 137 86 
8 69 120 137 86 70 121 138 87 
8 70 121 138 87 71 122 139 88 
8 71 122 139 88 72 123 140 89 
8 72 123 140 89 73 124 141 90 
8 73 124 141 90 74 125 142 91 
8 74 125 142 91 75 126 143 92 
8 75 126 143 92 76 127 144 93 
8 76 127 144 93 77 128 145 94 
8 77 128 145 94 78 129 146 95 
8 78 129 146 95 79 130 147 96 
8 79 130 147 96 80 131 148 97 
8 80 131 148 97 81 132 149 98 
8 81 132 149 98 82 133 150 99 
8 82 133 150 99 83 134 151 100 
8 83 134 151 100 84 135 152 101 
8 102 153 170 119 103 154 171 120 
8 103 154 171 120 104 155 172 121 
8 104 155 172 121 105 156 173 122 
8 105 156 173 122 106 157 174 123 
8 106 157 174 123 107 158 175 124 
8 107 158 175 124 108 159 176 125 
8 108 159 176 125 109 160 177 126 
8 109 160 177 126 110 161 178 127 
8 110 161 178 127 111 162 179 128 
8 111 162 179 128 112 163 180 129 
8 112 163 180 129 113 164 181 130 
8 113 164 181 130 114 165 182 131 
8 114 165 182 131 115 166 183 132 
8 115 166 183 132 116 167 184 133 
8 116 167 184 133 117 168 185 134 
8 117 168 185 134 118 169 186 135 
8 119 170 187 136 120 171 188 137 
8 120 171 188 137 121 172 189 138 
8 121 172 189 138 122 173 190 139 
8 122 173 190 139 123 174 191 140 
8 123 174 191 140 124 175 192 141 
8 124 175 192 141 125 176 193 142 
8 125 176 193 142 126 177 194 143 
8 126 177 194 143 127 178 195 144 
8 127 178 195 144 128 179 196 145 
8 128 179 196 145 129 180 197 146 
8 129 180 197 146 130 181 198 147 
8 130 181 198 147 131 182 199 148 
8 131 182 199 148 132 183 200 149 
8 132 183 200 149 133 184 201 150 
8 133 184 201 150 134 185 202 151 
8 134 185 202 151 135 186 203 152 
8 153 204 221 170 154 205 222 171 
8 154 205 222 171 155 206 223 172 
8 155 206 223 172 156 207 224 173 
8 156 207 224 173 157 208 225 174 
8 157 208 225 174 158 209 226 175 
8 158 209 226 175 159 210 227 176 
8 159 210 227 176 160 211 228 177 
8 160 211 228 177 161 212 229 178 
8 161 212 229 178 162 213 230 179 
8 162 213 230 179 163 214 231 180 
8 163 214 231 180 164 215 232 181 
8 164 215 232 181 165 216 233 182 
8 165 216 233 182 166 217 234 183 
8 166 217 234 183 167 218 235 184 
8 167 218 235 184 168 219 236 185 
8 168 219 236 185 169 220 237 186 
8 170 221 238 187 171 222 239 188 
8 171 222 239 188 172 223 240 189 
8 172 223 240 189 173 224 241 190 
8 173 224 241 190 174 225 242 191 
8 174 225 242 191 175 226 243 192 
8 175 226 243 192 176 227 244 193 
8 176 227 244 193 177 228 245 194 
8 177 228 245 194 178 229 246 195 
8 178 229 246 195 179 230 247 196 
8 179 230 247 196 180 231 248 197 
8 180 231 248 197 181 232 249 198 
8 181 232 249 198 182 233 250 199 
8 182 233 250 199 183 234 251 200 
8 183 234 251 200 184 235 252 201 
8 184 235 252 201 185 236 253 202 
8 185 236 253 202 186 237 254 203 

CELL_TYPES 128
12
12
12
12
12
12
12
12
12
12
12
12
12
12
12
12
12
12
12
12
12
12
12
12
12
12
12
12
12
12
12
12
12
12
12
12
12
12
12
12
12
12
12
12
12
12
12
12
12
12
12
12
12
12
12
12
12
12
12
12
12
12
12
12
12
12
12
12
12
12
12
12
12
12
12
12
12
12
12
12
12
12
12
12
12
12
12
12
12
12
12
12
12
12
12
12
12
12
12
12
12
12
12
12
12
12
12
12
12
12
12
12
12
12
12
12
12
12
12
12
12
12
12
12
12
12
12
12

POINT_DATA 255

SCALARS node_groups int 1
LOOKUP_TABLE default
0
0
0
0
0
0
0
0
0
0
0
0
0
0
0
0
0
0
0
0
0
0
0
0
0
0
0
0
0
0
0
0
0
0
0
0
0
0
0
0
0
0
0
0
0
0
0
0
0
0
0
0
0
0
0
0
0
0
0
0
0
0
0
0
0
0
0
0
0
0
0
0
0
0
0
0
0
0
0
0
0
0
0
0
0
0
0
0
0
0
0
0
0
0
0
0
0
0
0
0
0
0
0
0
0
0
0
0
0
0
0
0
0
0
0
0
0
0
0
0
0
0
0
0
0
0
0
0
0
0
0
0
0
0
0
0
0
0
0
0
0
0
0
0
0
0
0
0
0
0
0
0
0
0
0
0
0
0
0
0
0
0
0
0
0
0
0
0
0
0
0
0
0
0
0
0
0
0
0
0
0
0
0
0
0
0
0
0
0
0
0
0
0
0
0
0
0
0
0
0
0
0
0
0
0
0
0
0
0
0
0
0
0
0
0
0
0
0
0
0
0
0
0
0
0
0
0
0
0
0
0
0
0
0
0
0
0
0
0
0
0
0
0
0
0
0
0
0
0
0
0
0
0
0
0

VECTORS u float
0.000000e+00 0.000000e+00 0.000000e+00
8.287326e-06 1.446053e-05 2.844101e-04
6.418092e-06 1.711437e-05 5.767848e-04
6.812222e-06 2.137092e-05 8.684335e-04
6.732373e-06 2.394996e-05 1.160167e-03
6.748417e-06 2.579196e-05 1.451896e-03
6.745416e-06 2.675036e-05 1.743634e-03
6.746194e-06 2.695807e-05 2.035378e-03
6.746177e-06 2.647697e-05 2.327129e-03
6.746494e-06 2.538758e-05 2.618887e-03
6.745912e-06 2.376177e-05 2.910651e-03
6.749636e-06 2.168998e-05 3.202423e-03
6.732021e-06 1.919260e-05 3.494197e-03
6.819263e-06 1.656647e-05 3.785998e-03
6.400131e-06 1.302108e-05 4.077678e-03
8.347826e-06 1.202571e-05 4.370470e-03
0.000000e+00 0.000000e+00 4.652033e-03
0.000000e+00 0.000000e+00 0.000000e+00
8.291403e-06 5.770520e-06 2.841466e-04
6.416758e-06 1.058833e-05 5.770180e-04
6.815844e-06 1.428987e-05 8.685784e-04
6.733465e-06 1.701138e-05 1.160462e-03
6.750159e-06 1.881699e-05 1.452246e-03
6.746812e-06 1.978446e-05 1.744061e-03
6.747486e-06 1.998979e-05 2.035867e-03
6.747324e-06 1.950929e-05 2.327675e-03
6.747490e-06 1.841914e-05 2.619483e-03
6.746785e-06 1.679552e-05 2.911289e-03
6.750313e-06 1.471467e-05 3.203104e-03
6.732673e-06 1.225267e-05 3.494890e-03
6.819588e-06 9.487808e-06 3.786765e-03
6.400920e-06 6.481327e-06 4.078343e-03
8.343057e-06 3.373825e-06 4.371311e-03
0.000000e+00 0.000000e+00 4.653401e-03
0.000000e+00 0.000000e+00 0.000000e+00
8.296151e-06 -2.920595e-06 2.843724e-04
6.418576e-06 4.059182e-06 5.770025e-04
6.817817e-06 7.207069e-06 8.688196e-04
6.735089e-06 1.007077e-05 1.160724e-03
6.751776e-06 1.184029e-05 1.452606e-03
6.748224e-06 1.281693e-05 1.744485e-03
6.748780e-06 1.302006e-05 2.036356e-03
6.748465e-06 1.254033e-05 2.328221e-03
6.748486e-06 1.144957e-05 2.620080e-03
6.747681e-06 9.828310e-06 2.911931e-03
6.750863e-06 7.738523e-06 3.203776e-03
6.733784e-06 5.312230e-06 3.495611e-03
6.818798e-06 2.408260e-06 3.787457e-03
6.402285e-06 -5.769796e-08 4.079184e-03
8.347598e-06 -5.280111e-06 4.371932e-03
0.000000e+00 0.000000e+00 4.653741e-03
0.000000e+00 0.000000e+00 0.000000e+00
4.116842e-06 1.445580e-05 2.832544e-04
3.230194e-06 1.712855e-05 5.771599e-04
3.397112e-06 2.135120e-05 8.683397e-04
3.369242e-06 2.394983e-05 1.160189e-03
3.373283e-06 2.578483e-05 1.451892e-03
3.372972e-06 2.674614e-05 1.743635e-03
3.373020e-06 2.695360e-05 2.035378e-03
3.373126e-06 2.647323e-05 2.327129e-03
3.373175e-06 2.538410e-05 2.618887e-03
3.373198e-06 2.375932e-05 2.910650e-03
3.373994e-06 2.168643e-05 3.202427e-03
3.368642e-06 1.919368e-05 3.494175e-03
3.402298e-06 1.655900e-05 3.786093e-03
3.214945e-06 1.302156e-05 4.077322e-03
4.167040e-06 1.208364e-05 4.371360e-03
0.000000e+00 0.000000e+00 4.654772e-03
0.000000e+00 0.000000e+00 0.000000e+00
4.119047e-06 5.761069e-06 2.829907e-04
3.228631e-06 1.058289e-05 5.773948e-04
3.399438e-06 1.428227e-05 8.684843e-04
3.369579e-06 1.700630e-05 1.160483e-03
3.374227e-06 1.881156e-05 1.452242e-03
3.373646e-06 1.977971e-05 1.744062e-03
3.373675e-06 1.998548e-05 2.035867e-03
3.373695e-06 1.950547e-05 2.327675e-03
3.373678e-06 1.841580e-05 2.619484e-03
3.373625e-06 1.679261e-05 2.911288e-03
3.374346e-06 1.471248e-05 3.203109e-03
3.368952e-06 1.225018e-05 3.494868e-03
3.402470e-06 9.487104e-06 3.786861e-03
3.215512e-06 6.481083e-06 4.077985e-03
4.162782e-06 3.374957e-06 4.372203e-03
0.000000e+00 0.000000e+00 4.656146e-03
0.000000e+00 0.000000e+00 0.000000e+00
4.122039e-06 -2.934742e-06 2.832177e-04
3.229688e-06 4.034088e-06 5.773797e-04
3.400317e-06 7.211634e-06 8.687244e-04
3.370447e-06 1.006070e-05 1.160745e-03
3.375005e-06 1.183656e-05 1.452602e-03
3.374366e-06 1.281165e-05 1.744486e-03
3.374315e-06 1.301592e-05 2.036356e-03
3.374270e-06 1.253642e-05 2.328221e-03
3.374168e-06 1.144638e-05 2.620080e-03
3.374093e-06 9.824958e-06 2.911930e-03
3.374562e-06 7.737681e-06 3.203781e-03
3.369664e-06 5.306190e-06 3.495590e-03
3.401753e-06 2.414312e-06 3.787551e-03
3.216412e-06 -5.869030e-08 4.078829e-03
4.166799e-06 -5.335834e-06 4.372826e-03
0.000000e+00 0.000000e+00 4.656486e-03
0.000000e+00 0.000000e+00 0.000000e+00
-1.464351e-17 1.445612e-05 2.830298e-04
-5.147535e-17 1.712859e-05 5.771457e-04
-1.074128e-16 2.134849e-05 8.683641e-04
-1.742584e-16 2.394774e-05 1.160179e-03
-2.453821e-16 2.578331e-05 1.451895e-03
-3.182133e-16 2.674442e-05 1.743634e-03
-3.719356e-16 2.695223e-05 2.035378e-03
-4.206704e-16 2.647192e-05 2.327129e-03
-4.652057e-16 2.538303e-05 2.618887e-03
-4.852347e-16 2.375825e-05 2.910651e-03
-4.691343e-16 2.168588e-05 3.202425e-03
-4.255494e-16 1.919281e-05 3.494183e-03
-3.452100e-16 1.655751e-05 3.786078e-03
-2.117447e-16 1.302469e-05 4.077291e-03
-8.983334e-17 1.209869e-05 4.371707e-03
0.000000e+00 0.000000e+00 4.655474e-03
0.000000e+00 0.000000e+00 0.000000e+00
-2.077779e-17 5.759462e-06 2.827661e-04
-7.083445e-17 1.057992e-05 5.773810e-04
-1.435218e-16 1.427995e-05 8.685087e-04
-2.300660e-16 1.700460e-05 1.160473e-03
-3.209459e-16 1.880975e-05 1.452245e-03
-4.144346e-16 1.977812e-05 1.744061e-03
-4.897782e-16 1.998405e-05 2.035867e-03
-5.586216e-16 1.950420e-05 2.327675e-03
-6.182832e-16 1.841468e-05 2.619483e-03
-6.431996e-16 1.679165e-05 2.911289e-03
-6.223320e-16 1.471176e-05 3.203106e-03
-5.658688e-16 1.224936e-05 3.494877e-03
-4.653294e-16 9.486578e-06 3.786846e-03
-3.007204e-16 6.482187e-06 4.077955e-03
-1.375700e-16 3.375557e-06 4.372551e-03
0.000000e+00 0.000000e+00 4.656850e-03
0.000000e+00 0.000000e+00 0.000000e+00
-2.692630e-17 -2.938239e-06 2.829934e-04
-9.012535e-17 4.028072e-06 5.773662e-04
-1.796870e-16 7.209731e-06 8.687485e-04
-2.855916e-16 1.005937e-05 1.160735e-03
-3.968060e-16 1.183447e-05 1.452605e-03
-5.109562e-16 1.281019e-05 1.744485e-03
-6.075663e-16 1.301444e-05 2.036356e-03
-6.973065e-16 1.253518e-05 2.328221e-03
-7.707359e-16 1.144521e-05 2.620079e-03
-8.018723e-16 9.824094e-06 2.911931e-03
-7.753342e-16 7.736779e-06 3.203778e-03
-7.074277e-16 5.305430e-06 3.495598e-03
-5.857412e-16 2.414727e-06 3.787536e-03
-3.902010e-16 -5.960063e-08 4.078799e-03
-1.854579e-16 -5.349697e-06 4.373176e-03
0.000000e+00 0.000000e+00 4.657190e-03
0.000000e+00 0.000000e+00 0.000000e+00
-4.116842e-06 1.445580e-05 2.832544e-04
-3.230194e-06 1.712855e-05 5.771599e-04
-3.397112e-06 2.135120e-05 8.683397e-04
-3.369242e-06 2.394983e-05 1.160189e-03
-3.373283e-06 2.578483e-05 1.451892e-03
-3.372972e-06 2.674614e-05 1.743635e-03
-3.373020e-06 2.695360e-05 2.035378e-03
-3.373126e-06 2.647323e-05 2.327129e-03
-3.373175e-06 2.538410e-05 2.618887e-03
-3.373198e-06 2.375932e-05 2.910650e-03
-3.373994e-06 2.168643e-05 3.202427e-03
-3.368642e-06 1.919368e-05 3.494175e-03
-3.402298e-06 1.655900e-05 3.786093e-03
-3.214945e-06 1.302156e-05 4.077322e-03
-4.167040e-06 1.208364e-05 4.371360e-03
0.000000e+00 0.000000e+00 4.654772e-03
0.000000e+00 0.000000e+00 0.000000e+00
-4.119047e-06 5.761069e-06 2.829907e-04
-3.228631e-06 1.058289e-05 5.773948e-04
-3.399438e-06 1.428227e-05 8.684843e-04
-3.369579e-06 1.700630e-05 1.160483e-03
-3.374227e-06 1.881156e-05 1.452242e-03
-3.373646e-06 1.977971e-05 1.744062e-03
-3.373675e-06 1.998548e-05 2.035867e-03
-3.373695e-06 1.950547e-05 2.327675e-03
-3.373678e-06 1.841580e-05 2.619484e-03
-3.373625e-06 1.679261e-05 2.911288e-03
-3.374346e-06 1.471248e-05 3.203109e-03
-3.368952e-06 1.225018e-05 3.494868e-03
-3.402470e-06 9.487104e-06 3.786861e-03
-3.215512e-06 6.481083e-06 4.077985e-03
-4.162782e-06 3.374957e-06 4.372203e-03
0.000000e+00 0.000000e+00 4.656146e-03
0.000000e+00 0.000000e+00 0.000000e+00
-4.122039e-06 -2.934742e-06 2.832177e-04
-3.229688e-06 4.034088e-06 5.773797e-04
-3.400317e-06 7.211634e-06 8.687244e-04
-3.370447e-06 1.006070e-05 1.160745e-03
-3.375005e-06 1.183656e-05 1.452602e-03
-3.374366e-06 1.281165e-05 1.744486e-03
-3.374315e-06 1.301592e-05 2.036356e-03
-3.374270e-06 1.253642e-05 2.328221e-03
-3.374168e-06 1.144638e-05 2.620080e-03
-3.374093e-06 9.824958e-06 2.911930e-03
-3.374562e-06 7.737681e-06 3.203781e-03
-3.369664e-06 5.306190e-06 3.495590e-03
-3.401753e-06 2.414312e-06 3.787551e-03
-3.216412e-06 -5.869030e-08 4.078829e-03
-4.166799e-06 -5.335834e-06 4.372826e-03
0.000000e+00 0.000000e+00 4.656486e-03
0.000000e+00 0.000000e+00 0.000000e+00
-8.287326e-06 1.446053e-05 2.844101e-04
-6.418092e-06 1.711437e-05 5.767848e-04
-6.812222e-06 2.137092e-05 8.684335e-04
-6.732373e-06 2.394996e-05 1.160167e-03
-6.748417e-06 2.579196e-05 1.451896e-03
-6.745416e-06 2.675036e-05 1.743634e-03
-6.746194e-06 2.695807e-05 2.035378e-03
-6.746177e-06 2.647697e-05 2.327129e-03
-6.746494e-06 2.538758e-05 2.618887e-03
-6.745912e-06 2.376177e-05 2.910651e-03
-6.749636e-06 2.168998e-05 3.202423e-03
-6.732021e-06 1.919260e-05 3.494197e-03
-6.819263e-06 1.656647e-05 3.785998e-03
-6.400131e-06 1.302108e-05 4.077678e-03
-8.347826e-06 1.202571e-05 4.370470e-03
0.000000e+00 0.000000e+00 4.652033e-03
0.000000e+00 0.000000e+00 0.000000e+00
-8.291403e-06 5.770520e-06 2.841466e-04
-6.416758e-06 1.058833e-05 5.770180e-04
-6.815844e-06 1.428987e-05 8.685784e-04
-6.733465e-06 1.701138e-05 1.160462e-03
-6.750159e-06 1.881699e-05 1.452246e-03
-6.746812e-06 1.978446e-05 1.744061e-03
-6.747486e-06 1.998979e-05 2.035867e-03
-6.747324e-06 1.950929e-05 2.327675e-03
-6.747490e-06 1.841914e-05 2.619483e-03
-6.746785e-06 1.679552e-05 2.911289e-03
-6.750313e-06 1.471467e-05 3.203104e-03
-6.732673e-06 1.225267e-05 3.494890e-03
-6.819588e-06 9.487808e-06 3.786765e-03
-6.400920e-06 6.481327e-06 4.078343e-03
-8.343057e-06 3.373825e-06 4.371311e-03
0.000000e+00 0.000000e+00 4.653401e-03
0.000000e+00 0.000000e+00 0.000000e+00
-8.296151e-06 -2.920595e-06 2.843724e-04
-6.418576e-06 4.059182e-06 5.770025e-04
-6.817817e-06 7.207069e-06 8.688196e-04
-6.735089e-06 1.007077e-05 1.160724e-03
-6.751776e-06 1.184029e-05 1.452606e-03
-6.748224e-06 1.281693e-05 1.744485e-03
-6.748780e-06 1.302006e-05 2.036356e-03
-6.748465e-06 1.254033e-05 2.328221e-03
-6.748486e-06 1.144957e-05 2.620080e-03
-6.747681e-06 9.828310e-06 2.911931e-03
-6.750863e-06 7.738523e-06 3.203776e-03
-6.733784e-06 5.312230e-06 3.495611e-03
-6.818798e-06 2.408260e-06 3.787457e-03
-6.402285e-06 -5.769796e-08 4.079184e-03
-8.347598e-06 -5.280111e-06 4.371932e-03
0.000000e+00 0.000000e+00 4.653741e-03

CELL_DATA 128
SCALARS mat_id int 1
LOOKUP_TABLE default
0
0
0
0
0
0
0
0
0
0
0
0
0
0
0
0
0
0
0
0
0
0
0
0
0
0
0
0
0
0
0
0
0
0
0
0
0
0
0
0
0
0
0
0
0
0
0
0
0
0
0
0
0
0
0
0
0
0
0
0
0
0
0
0
0
0
0
0
0
0
0
0
0
0
0
0
0
0
0
0
0
0
0
0
0
0
0
0
0
0
0
0
0
0
0
0
0
0
0
0
0
0
0
0
0
0
0
0
0
0
0
0
0
0
0
0
0
0
0
0
0
0
0
0
0
0
0
0
